<?xml version="1.0"?>
<VTKFile type="StructuredGrid" version="0.1">
<StructuredGrid WholeExtent="0 9 0 9 0 0">
<Piece Extent="0 9 0 9 0 0">
<Points>
<DataArray type="Float64" NumberOfComponents="3" format="ascii">
0 0 0
0 1 0
0 2 0
0 3 0
0 4 0
0 5 0
0 6 0
0 7 0
0 8 0
0 9 0
1 0 0
1 1 0
1 2 0
1 3 0
1 4 0
1 5 0
1 6 0
1 7 0
1 8 0
1 9 0
2 0 0
2 1 0
2 2 0
2 3 0
2 4 0
2 5 0
2 6 0
2 7 0
2 8 0
2 9 0
3 0 0
3 1 0
3 2 0
3 3 0
3 4 0
3 5 0
3 6 0
3 7 0
3 8 0
3 9 0
4 0 0
4 1 0
4 2 0
4 3 0
4 4 0
4 5 0
4 6 0
4 7 0
4 8 0
4 9 0
5 0 0
5 1 0
5 2 0
5 3 0
5 4 0
5 5 0
5 6 0
5 7 0
5 8 0
5 9 0
6 0 0
6 1 0
6 2 0
6 3 0
6 4 0
6 5 0
6 6 0
6 7 0
6 8 0
6 9 0
7 0 0
7 1 0
7 2 0
7 3 0
7 4 0
7 5 0
7 6 0
7 7 0
7 8 0
7 9 0
8 0 0
8 1 0
8 2 0
8 3 0
8 4 0
8 5 0
8 6 0
8 7 0
8 8 0
8 9 0
9 0 0
9 1 0
9 2 0
9 3 0
9 4 0
9 5 0
9 6 0
9 7 0
9 8 0
9 9 0
</DataArray>
</Points>
<PointData Scalars="scalars">
<DataArray type="Float64" Name="u" format="ascii">
0.0742736 0.0411049 0.0825493 0.135845 0.18317 0.202361 0.18317 0.135845 0.0825493 0.0825493 
0.0411049 0.0411049 0.0825493 0.135845 0.18317 0.202361 0.18317 0.135845 0.0825493 0.0825493 
0.0825493 0.0825493 0.165779 0.272809 0.367847 0.406387 0.367847 0.272809 0.165779 0.165779 
0.135845 0.135845 0.272809 0.448937 0.605332 0.668752 0.605332 0.448937 0.272809 0.272809 
0.18317 0.18317 0.367847 0.605332 0.816209 0.901722 0.816209 0.605332 0.367847 0.367847 
0.202361 0.202361 0.406387 0.668752 0.901722 0.996193 0.901722 0.668752 0.406387 0.406387 
0.18317 0.18317 0.367847 0.605332 0.816209 0.901722 0.816209 0.605332 0.367847 0.367847 
0.135845 0.135845 0.272809 0.448937 0.605332 0.668752 0.605332 0.448937 0.272809 0.272809 
0.0825493 0.0825493 0.165779 0.272809 0.367847 0.406387 0.367847 0.272809 0.165779 0.165779 
0.0825493 0.0825493 0.165779 0.272809 0.367847 0.406387 0.367847 0.272809 0.165779 0.165779 
</DataArray>
</PointData>
</Piece>
</StructuredGrid>
</VTKFile>
