<VTKFile type="PolyData" version="0.1" byte_order="LittleEndian">
  <PolyData>
    <Piece NumberOfPoints="40" NumberOfPolys="1">
      <CellData>
        <DataArray type="Float64" Name="area" format="ascii">
2.98475 
        </DataArray>
        <DataArray type="Float64" Name="u" NumberOfComponents="1" format="ascii">
0.0170049 
        </DataArray>
        <DataArray type="Float64" Name="D" NumberOfComponents="1" format="ascii">
30.4745 
        </DataArray>
        <DataArray type="Float64" Name="k" NumberOfComponents="1" format="ascii">
0.969693 
        </DataArray>
        <DataArray type="Float64" Name="p" NumberOfComponents="1" format="ascii">
1.12382 
        </DataArray>
        <DataArray type="Float64" Name="threshold" NumberOfComponents="1" format="ascii">
0.00714567 
        </DataArray>
        <DataArray type="Int8" Name="flag" format="ascii">
0 
        </DataArray>
        <DataArray type="Float64" Name="perimeter" format="ascii">
6.14048 
        </DataArray>
        <DataArray type="Float64" Name="neighbors" format="ascii">
0 
        </DataArray>
      </CellData>
      <Points>
        <DataArray type="Float64" Name="Points" NumberOfComponents="3" format="ascii">
0.874735 -0.419314 0 0.937237 -0.278388 0 0.966668 -0.127011 0 0.967478 0.0257791 0 0.966527 0.178461 0 0.935053 0.329244 0 0.870992 0.469102 0 0.782043 0.592822 0 0.691152 0.715286 0 0.577706 0.819365 0 0.443374 0.894286 0 0.298881 0.942385 0 0.153274 0.98762 0 -4.83991e-16 1.00466 0 -0.153274 0.98762 0 -0.298881 0.942385 0 -0.443374 0.894286 0 -0.577706 0.819365 0 -0.691152 0.715286 0 -0.782043 0.592822 0 -0.870992 0.469102 0 -0.935053 0.329244 0 -0.966527 0.178461 0 -0.967478 0.0257791 0 -0.966668 -0.127011 0 -0.937237 -0.278388 0 -0.874735 -0.419314 0 -0.784353 -0.542737 0 -0.693075 -0.665863 0 -0.57934 -0.770933 0 -0.445304 -0.848279 0 -0.299741 -0.895945 0 -0.153868 -0.942674 0 -4.60339e-16 -0.958794 0 0.153868 -0.942674 0 0.299741 -0.895945 0 0.445304 -0.848279 0 0.57934 -0.770933 0 0.693075 -0.665863 0 0.784353 -0.542737 0 
        </DataArray>
      </Points>
      <Polys>
        <DataArray type="Int64" Name="connectivity" format="ascii">
0 1 2 3 4 5 6 7 8 9 10 11 12 13 14 15 16 17 18 19 20 21 22 23 24 25 26 27 28 29 30 31 32 33 34 35 36 37 38 39 
        </DataArray>
        <DataArray type="Int64" Name="offsets" format="ascii">
40 
        </DataArray>
      </Polys>
    </Piece>
  </PolyData>
</VTKFile>
