<VTKFile type="PolyData" version="0.1" byte_order="LittleEndian">
  <PolyData>
    <Piece NumberOfPoints="3954" NumberOfPolys="88">
      <CellData>
        <DataArray type="Float64" Name="area" format="ascii">
1.97124 2.06143 2.90838 1.79352 2.5536 2.96405 2.67334 2.94266 2.35742 2.47075 1.76698 2.54535 1.67442 1.80445 1.36541 1.88569 1.82784 1.43922 1.42274 2.23671 1.65856 1.84025 1.17978 1.6905 2.76427 2.11094 2.23314 1.99697 2.03621 2.02753 1.88165 1.91686 2.28597 2.12045 1.92373 2.04969 1.51491 1.67357 1.94979 2.71947 1.36445 1.59955 2.03941 2.75784 2.96816 1.19202 2.13157 2.78663 2.69479 2.8006 2.69612 2.59095 2.3913 2.48109 2.33892 2.68808 2.30238 2.34362 2.18145 2.37215 1.96458 1.8933 2.06278 1.77279 2.14343 1.8659 1.73048 1.64084 1.73983 2.093 1.66047 1.73799 1.86967 1.89059 1.7666 1.47337 1.9487 1.94662 1.70186 1.64965 1.70873 1.46122 1.37996 1.35825 1.54548 1.47318 1.41757 1.56678 
        </DataArray>
        <DataArray type="Float64" Name="u" NumberOfComponents="1" format="ascii">
0.0173973 0.000266681 0.0043526 0.000172004 0.00350814 0.000764139 0.000127957 0.00374421 0.000197933 0.00150137 0.000628443 0.00149315 0.00220328 0.00193313 0.00701419 7.18767e-05 0.000299183 3.79376e-05 0.00166418 0.00268529 0.000184121 0.00569885 0.000844848 0.00189375 0.0016217 0.00434281 0.00132148 0.000410182 0.000599571 0.000273424 0.00118665 0.00547115 0.00224606 3.9434e-05 0.000248811 0.000380512 0.00154573 7.9378e-05 0.000945874 0.000824484 0.000142664 0.00969783 0.00382289 0.00470879 0.000110755 0.00244392 0.000403064 0.00354897 0.00724262 0.00180404 0.00416206 0.000272962 0.000719081 0.000795091 0.000977202 0.00201257 0.000590409 5.76455e-05 0.00175593 3.22895e-05 0.000423051 0.000551092 4.37099e-05 0.000137029 0.00307538 0.00118024 0.000284155 0.00323915 0.00161993 0.00939508 0.000428173 0.000338713 0.000377769 0.00126216 0.000168151 0.00175757 0.00291587 0.0011321 0.00274534 0.000106676 0.0105871 0.00230774 7.45552e-05 6.22839e-05 0.00167517 0.00938594 0.000771302 0.00847484 
        </DataArray>
        <DataArray type="Float64" Name="D" NumberOfComponents="1" format="ascii">
32 32 32 32 32 32 32 32 32 32 32 32 32 32 32 32 32 32 32 32 32 32 32 32 32 32 32 32 32 32 32 32 32 32 32 32 32 32 32 32 32 32 32 32 32 32 32 32 32 32 32 32 32 32 32 32 32 32 32 32 32 32 32 32 32 32 32 32 32 32 32 32 32 32 32 32 32 32 32 32 32 32 32 32 32 32 32 32 
        </DataArray>
        <DataArray type="Float64" Name="k" NumberOfComponents="1" format="ascii">
1 1 1 1 1 1 1 1 1 1 1 1 1 1 1 1 1 1 1 1 1 1 1 1 1 1 1 1 1 1 1 1 1 1 1 1 1 1 1 1 1 1 1 1 1 1 1 1 1 1 1 1 1 1 1 1 1 1 1 1 1 1 1 1 1 1 1 1 1 1 1 1 1 1 1 1 1 1 1 1 1 1 1 1 1 1 1 1 
        </DataArray>
        <DataArray type="Float64" Name="p" NumberOfComponents="1" format="ascii">
1 0 0 0 0 0 0 0 0 0 0 0 0 0 0 0 0 0 0 0 0 0 0 0 0 0 0 0 0 0 0 0 0 0 0 0 0 0 0 0 0 0 0 0 0 0 0 0 0 0 0 0 0 0 0 0 0 0 0 0 0 0 0 0 0 0 0 0 0 0 0 0 0 0 0 0 0 0 0 0 0 0 0 0 0 0 0 0 
        </DataArray>
        <DataArray type="Float64" Name="threshold" NumberOfComponents="1" format="ascii">
0.001 0.001 0.001 0.001 0.001 0.001 0.001 0.001 0.001 0.001 0.001 0.001 0.001 0.001 0.001 0.001 0.001 0.001 0.001 0.001 0.001 0.001 0.001 0.001 0.001 0.001 0.001 0.001 0.001 0.001 0.001 0.001 0.001 0.001 0.001 0.001 0.001 0.001 0.001 0.001 0.001 0.001 0.001 0.001 0.001 0.001 0.001 0.001 0.001 0.001 0.001 0.001 0.001 0.001 0.001 0.001 0.001 0.001 0.001 0.001 0.001 0.001 0.001 0.001 0.001 0.001 0.001 0.001 0.001 0.001 0.001 0.001 0.001 0.001 0.001 0.001 0.001 0.001 0.001 0.001 0.001 0.001 0.001 0.001 0.001 0.001 0.001 0.001 
        </DataArray>
        <DataArray type="Int8" Name="cell_type" format="ascii">
0 1 1 1 1 1 1 1 1 1 1 1 1 1 0 1 1 1 1 1 1 0 1 1 1 1 1 1 1 1 1 0 1 1 1 1 1 1 1 1 1 0 1 1 1 1 1 1 0 1 1 1 1 1 1 1 1 1 1 1 1 1 1 1 1 1 1 1 1 0 1 1 1 1 1 1 1 1 1 1 0 1 1 1 1 0 1 0 
        </DataArray>
        <DataArray type="Float64" Name="perimeter" format="ascii">
5.16679 5.28706 6.27796 4.93197 5.87942 6.32151 6.00674 6.23881 5.60432 5.77371 4.87639 5.8719 4.6988 4.90504 4.33391 4.97845 5.10372 4.32747 4.37975 5.50396 4.66641 4.96651 3.95353 4.73646 5.98851 5.29299 5.52072 5.11476 5.17426 5.27953 5.09047 5.14949 5.49117 5.29885 5.01136 5.1818 4.517 4.74203 5.033 6.07165 4.28287 4.65887 5.38242 6.08489 6.34661 4.0492 5.34701 6.10485 6.11291 6.01317 6.04682 5.8534 5.6327 5.68965 5.63228 5.89852 5.64916 5.53563 5.44539 5.5576 5.28739 5.03011 5.26666 4.88666 5.38841 4.98755 4.76796 4.73093 4.79797 5.32868 4.72412 4.83814 4.99386 4.97095 4.87906 4.48337 5.13815 5.01054 4.80209 4.61456 4.87349 4.44106 4.23083 4.18568 4.63543 4.47754 4.4211 4.73957 
        </DataArray>
        <DataArray type="Float64" Name="neighbors" format="ascii">
5 5 7 6 5 6 8 5 5 6 5 7 5 4 4 5 5 3 5 6 4 4 5 4 3 6 6 3 3 5 6 5 3 3 5 3 4 4 2 8 6 4 6 6 7 5 7 6 5 3 7 4 5 3 6 5 6 3 5 2 5 6 4 3 5 5 4 6 3 5 5 6 4 3 5 5 5 4 5 2 4 6 4 4 6 5 6 5 
        </DataArray>
      </CellData>
      <Points>
        <DataArray type="Float64" Name="Points" NumberOfComponents="3" format="ascii">
2.62979 3.16245 0 2.51177 3.09029 0 2.37777 3.01043 0 2.26691 2.89922 0 2.25547 2.80751 0 2.24491 2.71579 0 2.23367 2.6247 0 2.22204 2.53533 0 2.20965 2.44103 0 2.19665 2.34837 0 2.18156 2.2549 0 2.16338 2.16015 0 2.14373 2.06738 0 2.1232 1.97774 0 2.10027 1.88631 0 2.151 1.7955 0 2.21453 1.70983 0 2.27185 1.65001 0 2.39897 1.64189 0 2.50059 1.63762 0 2.59911 1.63209 0 2.70191 1.62619 0 2.80505 1.62048 0 2.9036 1.61575 0 2.99795 1.61051 0 3.09817 1.60462 0 3.19785 1.60006 0 3.28991 1.65574 0 3.37214 1.73036 0 3.43743 1.80495 0 3.49114 1.88279 0 3.54358 1.98091 0 3.58118 2.08561 0 3.59996 2.19364 0 3.6024 2.3044 0 3.58061 2.39612 0 3.55895 2.48608 0 3.53449 2.59578 0 3.51295 2.72047 0 3.49161 2.85491 0 3.44073 2.97855 0 3.35383 3.08664 0 3.23779 3.17133 0 3.08225 3.21433 0 2.99112 3.22814 0 2.89807 3.23862 0 2.73584 3.2267 0 -1.90399 -4.02951 0 -1.83043 -3.87875 0 -1.75793 -3.72834 0 -1.75371 -3.58118 0 -1.81172 -3.50375 0 -1.87301 -3.42774 0 -1.9361 -3.35255 0 -2.00054 -3.27834 0 -2.06636 -3.2047 0 -2.13387 -3.13113 0 -2.20267 -3.05816 0 -2.27332 -2.98539 0 -2.34501 -2.91374 0 -2.41765 -2.84342 0 -2.49265 -2.77336 0 -2.5691 -2.7048 0 -2.67828 -2.69637 0 -2.75379 -2.75038 0 -2.82906 -2.80564 0 -2.90485 -2.86318 0 -2.98098 -2.92301 0 -3.05695 -2.98419 0 -3.1312 -3.04613 0 -3.20426 -3.10891 0 -3.27519 -3.17204 0 -3.34489 -3.23587 0 -3.41285 -3.30101 0 -3.45092 -3.40974 0 -3.46758 -3.52411 0 -3.4323 -3.63923 0 -3.39446 -3.75127 0 -3.35464 -3.86287 0 -3.31182 -3.97434 0 -3.24332 -4.12344 0 -3.16313 -4.27593 0 -3.06499 -4.3504 0 -2.95143 -4.40869 0 -2.85644 -4.41083 0 -2.76132 -4.41047 0 -2.66657 -4.40875 0 -2.5707 -4.40548 0 -2.47082 -4.40003 0 -2.36769 -4.39338 0 -2.23024 -4.38311 0 -2.09177 -4.36969 0 -2.02686 -4.25591 0 -1.96436 -4.14252 0 1.20814 3.38416 0 1.25843 3.50385 0 1.26055 3.60852 0 1.26513 3.71296 0 1.27227 3.80735 0 1.28107 3.90116 0 1.22801 4.0552 0 1.14157 4.12343 0 1.06445 4.18515 0 0.991781 4.24521 0 0.920039 4.30688 0 0.84846 4.37112 0 0.776149 4.43894 0 0.703572 4.51025 0 0.63173 4.58434 0 0.561769 4.65946 0 0.493061 4.73557 0 0.425624 4.81204 0 0.311765 4.84148 0 0.201467 4.80319 0 0.0587789 4.75494 0 -0.0838752 4.71078 0 -0.223598 4.67094 0 -0.3623 4.6317 0 -0.499999 4.59372 0 -0.575004 4.4933 0 -0.637862 4.38735 0 -0.689084 4.27672 0 -0.699336 4.15449 0 -0.711653 4.03315 0 -0.724672 3.91321 0 -0.711607 3.74268 0 -0.67037 3.57615 0 -0.586029 3.47486 0 -0.505487 3.37411 0 -0.427972 3.27309 0 -0.352051 3.17055 0 -0.277652 3.06598 0 -0.206144 2.9598 0 -0.137347 2.85133 0 0.00585351 2.88039 0 0.15218 2.90699 0 0.303671 2.9257 0 0.458043 2.93661 0 0.613046 2.94023 0 0.711623 2.94252 0 0.814593 2.98756 0 0.911349 3.04242 0 0.990187 3.11828 0 1.06763 3.19325 0 1.14336 3.26587 0 -0.481284 -4.94938 0 -0.533778 -4.86251 0 -0.620423 -4.81035 0 -0.713357 -4.77045 0 -0.795618 -4.78251 0 -0.877298 -4.79457 0 -0.964775 -4.80732 0 -1.05659 -4.82059 0 -1.14671 -4.83353 0 -1.23438 -4.84609 0 -1.32189 -4.85868 0 -1.4073 -4.87104 0 -1.49407 -4.88367 0 -1.58496 -4.89704 0 -1.6727 -4.91113 0 -1.76402 -4.97765 0 -1.8459 -5.05752 0 -1.92137 -5.22014 0 -1.95976 -5.30342 0 -1.99487 -5.38145 0 -2.00489 -5.50358 0 -1.99951 -5.60713 0 -1.92407 -5.75085 0 -1.84924 -5.89346 0 -1.7739 -6.03737 0 -1.64235 -6.14377 0 -1.50992 -6.15565 0 -1.38106 -6.16711 0 -1.29572 -6.17461 0 -1.20702 -6.18225 0 -1.11847 -6.18953 0 -1.02908 -6.1963 0 -0.93916 -6.20252 0 -0.850033 -6.15604 0 -0.76304 -6.09336 0 -0.723242 -6.00846 0 -0.684486 -5.927 0 -0.646823 -5.84812 0 -0.608649 -5.77457 0 -0.57108 -5.70235 0 -0.530116 -5.62782 0 -0.487793 -5.55101 0 -0.444246 -5.47262 0 -0.398437 -5.39352 0 -0.35263 -5.31215 0 -0.350895 -5.17948 0 -0.392374 -5.10248 0 -0.43617 -5.02599 0 5.60651 2.29818 0 5.46582 2.2642 0 5.3963 2.19607 0 5.33434 2.11994 0 5.27917 2.03773 0 5.23381 1.95425 0 5.24096 1.85066 0 5.25065 1.74622 0 5.26162 1.63935 0 5.27404 1.53223 0 5.28774 1.42603 0 5.30332 1.31722 0 5.31929 1.20775 0 5.33573 1.10284 0 5.35244 1.00031 0 5.36943 0.897221 0 5.38649 0.79478 0 5.40496 0.695333 0 5.51006 0.601012 0 5.62272 0.582121 0 5.73778 0.562777 0 5.85314 0.543309 0 5.96859 0.522679 0 6.08627 0.538895 0 6.20099 0.569144 0 6.3148 0.66447 0 6.42858 0.759114 0 6.54297 0.853024 0 6.65797 0.946925 0 6.77443 1.03733 0 6.8898 1.12841 0 6.93487 1.25946 0 6.9606 1.39373 0 6.96742 1.52807 0 6.95459 1.66191 0 6.90804 1.74362 0 6.86131 1.82487 0 6.79818 1.93459 0 6.73489 2.04444 0 6.67182 2.15357 0 6.60895 2.26224 0 6.54392 2.3725 0 6.4198 2.4552 0 6.30083 2.43811 0 6.18316 2.41857 0 6.06636 2.39805 0 5.95055 2.37531 0 5.835 2.35057 0 5.72007 2.32483 0 -2.68109 5.27116 0 -2.76957 5.31113 0 -2.92476 5.36011 0 -3.08512 5.38586 0 -3.20317 5.3201 0 -3.32397 5.25551 0 -3.44619 5.19282 0 -3.56909 5.13224 0 -3.69396 5.07265 0 -3.82088 5.01409 0 -3.888 4.9545 0 -3.9503 4.89009 0 -3.9944 4.75595 0 -4.04112 4.62342 0 -4.09131 4.49109 0 -4.14407 4.36093 0 -4.19826 4.23313 0 -4.19178 4.09895 0 -4.12168 4.02145 0 -4.02793 3.91416 0 -3.93922 3.80348 0 -3.85328 3.69183 0 -3.77163 3.57424 0 -3.6963 3.4565 0 -3.62284 3.33754 0 -3.51748 3.29343 0 -3.40933 3.26078 0 -3.29924 3.23971 0 -3.18762 3.22967 0 -3.03742 3.29396 0 -2.88841 3.35617 0 -2.74053 3.41614 0 -2.59079 3.47488 0 -2.50441 3.60625 0 -2.4796 3.74901 0 -2.45041 3.89251 0 -2.41691 4.03711 0 -2.3798 4.18122 0 -2.33925 4.32461 0 -2.29559 4.46585 0 -2.24913 4.60445 0 -2.2747 4.76751 0 -2.35719 4.87933 0 -2.43869 4.99266 0 -2.51822 5.10725 0 -2.5956 5.22317 0 -5.42137 -1.4564 0 -5.54791 -1.50245 0 -5.67745 -1.54416 0 -5.78054 -1.62746 0 -5.80079 -1.70388 0 -5.8214 -1.78065 0 -5.84349 -1.85631 0 -5.86687 -1.93081 0 -5.89188 -2.00573 0 -5.91839 -2.08076 0 -5.94651 -2.15594 0 -5.97626 -2.23106 0 -6.00746 -2.3056 0 -6.04053 -2.38035 0 -6.07415 -2.45494 0 -6.05385 -2.56647 0 -5.99122 -2.65274 0 -5.90327 -2.77996 0 -5.82174 -2.91482 0 -5.74384 -3.05206 0 -5.67123 -3.19038 0 -5.58989 -3.26327 0 -5.50503 -3.32773 0 -5.40785 -3.3589 0 -5.3108 -3.38942 0 -5.21546 -3.42024 0 -5.08605 -3.4112 0 -4.96022 -3.31173 0 -4.83367 -3.21331 0 -4.75156 -3.15131 0 -4.66738 -3.08917 0 -4.58252 -3.02805 0 -4.49941 -2.96858 0 -4.42941 -2.81644 0 -4.4183 -2.6614 0 -4.40072 -2.5057 0 -4.37755 -2.34848 0 -4.35927 -2.23526 0 -4.33625 -2.12057 0 -4.34576 -1.98083 0 -4.36838 -1.84148 0 -4.43394 -1.73537 0 -4.49667 -1.62891 0 -4.55773 -1.52239 0 -4.61623 -1.41462 0 -4.72729 -1.38272 0 -4.83799 -1.35095 0 -4.94871 -1.31881 0 -5.10396 -1.31678 0 -5.25996 -1.39055 0 5.62788 5.29149 0 5.59813 5.38368 0 5.52512 5.53895 0 5.42566 5.68062 0 5.30312 5.80328 0 5.16061 5.90352 0 5.04571 5.90027 0 4.93006 5.8963 0 4.81445 5.89255 0 4.69896 5.88892 0 4.58256 5.88525 0 4.46603 5.88147 0 4.35063 5.87752 0 4.23682 5.87297 0 4.12375 5.86688 0 4.00897 5.78964 0 3.90687 5.69602 0 3.86086 5.57537 0 3.80508 5.43047 0 3.74863 5.28638 0 3.6923 5.14328 0 3.70017 5.02839 0 3.72075 4.91555 0 3.75112 4.80574 0 3.79241 4.70057 0 3.84536 4.59972 0 3.90945 4.50084 0 4.06269 4.4199 0 4.13967 4.37805 0 4.21439 4.33741 0 4.28746 4.29192 0 4.35857 4.2478 0 4.49803 4.15199 0 4.64046 4.05044 0 4.77038 3.94947 0 4.91164 3.95637 0 5.04782 3.98607 0 5.18288 4.06109 0 5.3169 4.13699 0 5.42983 4.2732 0 5.4742 4.34815 0 5.51642 4.42655 0 5.54081 4.52464 0 5.5653 4.62292 0 5.58965 4.72005 0 5.61523 4.81687 0 5.64089 4.91381 0 5.66591 5.01075 0 5.66119 5.10487 0 5.64812 5.19805 0 2.07806 -6.74136 0 2.16316 -6.63929 0 2.23233 -6.52576 0 2.28404 -6.40355 0 2.31732 -6.275 0 2.28706 -6.17236 0 2.25581 -6.06979 0 2.22449 -5.96735 0 2.19317 -5.86486 0 2.16177 -5.76218 0 2.13048 -5.66017 0 2.09938 -5.55882 0 2.06852 -5.45824 0 2.03788 -5.35826 0 2.00542 -5.26014 0 1.84663 -5.23853 0 1.68596 -5.21545 0 1.5915 -5.19995 0 1.49626 -5.18432 0 1.37427 -5.16441 0 1.2072 -5.1875 0 1.04573 -5.23737 0 0.936005 -5.31973 0 0.827385 -5.40341 0 0.755469 -5.53871 0 0.756374 -5.62811 0 0.75836 -5.71769 0 0.759615 -5.80612 0 0.755975 -5.89367 0 0.749981 -6.00614 0 0.742034 -6.11832 0 0.731546 -6.23125 0 0.718223 -6.34489 0 0.743973 -6.47714 0 0.788966 -6.60406 0 0.864828 -6.6889 0 0.941042 -6.77544 0 1.01662 -6.86347 0 1.09116 -6.95269 0 1.21672 -6.99265 0 1.34683 -7.0135 0 1.47843 -7.01541 0 1.60796 -6.99798 0 1.7325 -6.96272 0 1.85047 -6.91121 0 1.97132 -6.83488 0 3.75184 -3.36851 0 3.83854 -3.40548 0 3.99854 -3.40863 0 4.15668 -3.3843 0 4.30906 -3.33166 0 4.36857 -3.24333 0 4.42696 -3.15349 0 4.4846 -3.06373 0 4.5417 -2.97395 0 4.59847 -2.88399 0 4.65475 -2.79447 0 4.71045 -2.70545 0 4.76597 -2.61626 0 4.82152 -2.52624 0 4.87492 -2.43523 0 4.8694 -2.28147 0 4.81255 -2.14737 0 4.75506 -2.01374 0 4.66983 -1.93251 0 4.57416 -1.86191 0 4.47026 -1.80353 0 4.35851 -1.76605 0 4.24616 -1.7282 0 4.13434 -1.68846 0 4.01714 -1.67571 0 3.89959 -1.67821 0 3.75531 -1.75776 0 3.60961 -1.83535 0 3.51898 -1.88237 0 3.42839 -1.9279 0 3.33673 -1.96893 0 3.24618 -2.00853 0 3.15635 -2.04714 0 3.06507 -2.08549 0 2.98885 -2.15099 0 2.91824 -2.22865 0 2.93263 -2.3772 0 2.94335 -2.48444 0 2.95511 -2.59154 0 2.96822 -2.69728 0 2.98342 -2.80177 0 2.99939 -2.90567 0 3.01753 -3.00939 0 3.14521 -3.1199 0 3.3185 -3.18869 0 3.49176 -3.2585 0 3.66556 -3.33089 0 -4.61481 2.19607 0 -4.64019 2.0553 0 -4.61953 1.92562 0 -4.57443 1.80221 0 -4.50663 1.74667 0 -4.4374 1.69232 0 -4.36804 1.63858 0 -4.298 1.58519 0 -4.22806 1.53285 0 -4.15851 1.48164 0 -4.08931 1.43128 0 -4.02046 1.38158 0 -3.95126 1.33196 0 -3.88199 1.28255 0 -3.81244 1.23496 0 -3.69006 1.24077 0 -3.60777 1.28894 0 -3.50549 1.35265 0 -3.4059 1.41776 0 -3.30791 1.48557 0 -3.21078 1.55857 0 -3.14407 1.67835 0 -3.10204 1.80847 0 -3.13409 1.92787 0 -3.17874 2.09103 0 -3.22996 2.25102 0 -3.28331 2.4064 0 -3.33833 2.56203 0 -3.39726 2.71719 0 -3.48089 2.77114 0 -3.57117 2.81218 0 -3.66662 2.83958 0 -3.76438 2.85252 0 -3.86227 2.8515 0 -3.95481 2.80879 0 -4.07517 2.75217 0 -4.19452 2.69594 0 -4.31493 2.63895 0 -4.43512 2.5814 0 -4.55366 2.52277 0 -4.58475 2.35924 0 2.34493 -1.78644 0 2.2632 -1.72819 0 2.15593 -1.69522 0 2.04663 -1.67195 0 1.88443 -1.69137 0 1.78657 -1.70205 0 1.68913 -1.71393 0 1.65739 -1.80074 0 1.61927 -1.90152 0 1.58229 -1.99231 0 1.54629 -2.07436 0 1.50436 -2.1666 0 1.4621 -2.25682 0 1.4232 -2.33713 0 1.3836 -2.41498 0 1.33811 -2.49788 0 1.28778 -2.58462 0 1.23469 -2.67282 0 1.22703 -2.76512 0 1.22783 -2.85189 0 1.2657 -2.92795 0 1.3037 -3.00344 0 1.33834 -3.08026 0 1.37204 -3.15828 0 1.40591 -3.23908 0 1.43582 -3.32199 0 1.46755 -3.40681 0 1.54096 -3.47686 0 1.62439 -3.54256 0 1.71824 -3.56135 0 1.81441 -3.57972 0 1.9112 -3.59984 0 2.00781 -3.62182 0 2.10471 -3.64274 0 2.21928 -3.61811 0 2.3309 -3.58128 0 2.40636 -3.52025 0 2.48159 -3.45984 0 2.57421 -3.38726 0 2.66749 -3.31726 0 2.76141 -3.24966 0 2.85656 -3.18393 0 2.95321 -3.11994 0 3.00665 -3.01126 0 2.99062 -2.91395 0 2.97558 -2.81688 0 2.95864 -2.70087 0 2.94401 -2.58277 0 2.93092 -2.46188 0 2.91911 -2.34112 0 2.90597 -2.223 0 2.83786 -2.14087 0 2.76326 -2.06505 0 2.67883 -2.01234 0 2.59475 -1.95907 0 2.50965 -1.90401 0 2.42645 -1.84508 0 0.203629 5.98738 0 0.139643 6.05635 0 0.042807 6.09716 0 -0.0584016 6.12347 0 -0.135598 6.09444 0 -0.211966 6.0646 0 -0.287562 6.03468 0 -0.363627 6.00462 0 -0.439364 5.97496 0 -0.514462 5.94486 0 -0.589779 5.91439 0 -0.665486 5.88354 0 -0.741087 5.85192 0 -0.81599 5.82006 0 -0.87505 5.7189 0 -0.918154 5.61001 0 -0.924585 5.51575 0 -0.93254 5.3746 0 -0.941314 5.23502 0 -0.94894 5.09636 0 -0.903472 4.9937 0 -0.845638 4.89795 0 -0.775537 4.80966 0 -0.692802 4.73004 0 -0.600316 4.66214 0 -0.500213 4.60627 0 -0.421816 4.62562 0 -0.343175 4.64743 0 -0.184813 4.69233 0 -0.103524 4.71551 0 -0.0233206 4.73994 0 0.0585498 4.76537 0 0.142193 4.79364 0 0.226834 4.82252 0 0.313053 4.85395 0 0.408648 4.97661 0 0.451477 5.10545 0 0.49319 5.2343 0 0.535065 5.36208 0 0.528092 5.50336 0 0.49776 5.6428 0 0.440264 5.71416 0 0.381163 5.78496 0 0.321922 5.85481 0 0.262434 5.92201 0 8.05425 2.6384 0 7.9862 2.75564 0 7.9006 2.85995 0 7.79879 2.94858 0 7.70853 2.96431 0 7.61858 2.97826 0 7.5284 2.99183 0 7.43753 3.00502 0 7.34571 3.01763 0 7.25349 3.02965 0 7.16107 3.04132 0 7.0692 3.05271 0 6.97972 3.06379 0 6.89173 3.07273 0 6.8164 3.02858 0 6.74595 2.97671 0 6.67988 2.85443 0 6.61728 2.72894 0 6.53878 2.5658 0 6.54093 2.47229 0 6.5534 2.37803 0 6.6416 2.22577 0 6.72843 2.07554 0 6.78663 1.9746 0 6.8445 1.8741 0 6.90265 1.773 0 6.96205 1.67129 0 7.06121 1.61498 0 7.16989 1.57412 0 7.28336 1.55022 0 7.39932 1.54322 0 7.48217 1.59496 0 7.56454 1.6481 0 7.64709 1.70127 0 7.72984 1.75381 0 7.81257 1.806 0 7.89626 1.85902 0 7.98119 1.91306 0 8.06583 1.96758 0 8.10423 2.07543 0 8.12696 2.18865 0 8.13319 2.30431 0 8.12248 2.42075 0 8.09612 2.53203 0 2.23167 4.8368 0 2.18667 4.71768 0 2.13553 4.58521 0 2.14487 4.44116 0 2.17592 4.33174 0 2.25238 4.24834 0 2.3165 4.17785 0 2.38244 4.10851 0 2.44547 4.04028 0 2.512 3.97136 0 2.5677 3.91385 0 2.62893 3.85082 0 2.70642 3.77064 0 2.79431 3.67653 0 2.88169 3.65532 0 2.97618 3.65023 0 3.04957 3.65888 0 3.12739 3.68228 0 3.20543 3.79637 0 3.25398 3.86858 0 3.28799 3.9199 0 3.32747 3.98137 0 3.36611 4.04439 0 3.40741 4.11186 0 3.46135 4.19568 0 3.52424 4.294 0 3.58569 4.39862 0 3.57604 4.50438 0 3.54864 4.60522 0 3.50194 4.69892 0 3.43893 4.78339 0 3.36378 4.85503 0 3.27579 4.91326 0 3.16888 4.92878 0 3.0657 4.93859 0 2.97049 4.94564 0 2.88361 4.95128 0 2.7988 4.9558 0 2.70687 4.95848 0 2.61286 4.9576 0 2.51831 4.95261 0 2.42042 4.94321 0 2.32421 4.92719 0 -1.87938 -7.44211 0 -1.81553 -7.50517 0 -1.71245 -7.58352 0 -1.5974 -7.64574 0 -1.47502 -7.68852 0 -1.39322 -7.65923 0 -1.31156 -7.62853 0 -1.22965 -7.59713 0 -1.14819 -7.56558 0 -1.06714 -7.53415 0 -0.986853 -7.50251 0 -0.906427 -7.47015 0 -0.825433 -7.43715 0 -0.743755 -7.40349 0 -0.661904 -7.36876 0 -0.581292 -7.33214 0 -0.511856 -7.23142 0 -0.486656 -7.09124 0 -0.469348 -6.99535 0 -0.452681 -6.8992 0 -0.476043 -6.7936 0 -0.511751 -6.69235 0 -0.572672 -6.60225 0 -0.629765 -6.51682 0 -0.687831 -6.42977 0 -0.759489 -6.34846 0 -0.846625 -6.27312 0 -0.936893 -6.21397 0 -1.02266 -6.20676 0 -1.10854 -6.20031 0 -1.21758 -6.19137 0 -1.32627 -6.18196 0 -1.43227 -6.17256 0 -1.53655 -6.16327 0 -1.64453 -6.15497 0 -1.76019 -6.21256 0 -1.8118 -6.29611 0 -1.86403 -6.38141 0 -1.91583 -6.46525 0 -1.96766 -6.54828 0 -2.02255 -6.63557 0 -2.07701 -6.72361 0 -2.09151 -6.82302 0 -2.09376 -6.92106 0 -2.07239 -7.07585 0 -2.01975 -7.2293 0 -1.98131 -7.30347 0 -1.9346 -7.37467 0 -5.11708 0.159558 0 -5.19331 0.0685838 0 -5.2541 -0.0335131 0 -5.29688 -0.143091 0 -5.27242 -0.252835 0 -5.24813 -0.36092 0 -5.22375 -0.469167 0 -5.19951 -0.576782 0 -5.17527 -0.684203 0 -5.15076 -0.79132 0 -5.12644 -0.89757 0 -5.10217 -1.0035 0 -5.07793 -1.109 0 -5.05288 -1.21349 0 -4.94097 -1.30961 0 -4.77861 -1.35776 0 -4.61528 -1.40319 0 -4.53372 -1.31118 0 -4.45448 -1.21755 0 -4.37641 -1.12459 0 -4.29929 -1.03171 0 -4.22218 -0.937895 0 -4.14563 -0.843984 0 -4.06971 -0.750169 0 -3.99469 -0.656865 0 -3.92014 -0.56354 0 -3.84515 -0.469042 0 -3.77163 -0.372909 0 -3.7673 -0.19816 0 -3.84459 -0.0393418 0 -3.9052 0.0786631 0 -3.97114 0.194495 0 -4.09808 0.28133 0 -4.2049 0.284593 0 -4.31196 0.285922 0 -4.41912 0.286786 0 -4.52604 0.287242 0 -4.63265 0.287279 0 -4.73901 0.286363 0 -4.84563 0.285223 0 -4.95332 0.283584 0 -5.03917 0.227829 0 -4.98996 -6.0885 0 -4.89386 -6.09931 0 -4.77132 -6.09165 0 -4.66384 -6.06812 0 -4.55927 -6.02554 0 -4.47913 -5.97879 0 -4.37959 -5.89554 0 -4.31195 -5.81583 0 -4.30055 -5.75619 0 -4.2876 -5.68838 0 -4.27513 -5.62293 0 -4.26277 -5.55864 0 -4.25143 -5.50008 0 -4.23938 -5.43883 0 -4.22609 -5.37189 0 -4.21086 -5.29576 0 -4.198 -5.22497 0 -4.24855 -5.09226 0 -4.34773 -5.01655 0 -4.43605 -4.95362 0 -4.53052 -4.88805 0 -4.62533 -4.82428 0 -4.73103 -4.75581 0 -4.84952 -4.68374 0 -4.99169 -4.6813 0 -5.10008 -4.76701 0 -5.21155 -4.85543 0 -5.2939 -4.92149 0 -5.37215 -4.98512 0 -5.43568 -5.03851 0 -5.4923 -5.08792 0 -5.5182 -5.14367 0 -5.54596 -5.22677 0 -5.56413 -5.32338 0 -5.56842 -5.42225 0 -5.55884 -5.51803 0 -5.53488 -5.61638 0 -5.46871 -5.76126 0 -5.37245 -5.8864 0 -5.23399 -5.99666 0 -5.08367 -6.06591 0 -1.59229 -0.301987 0 -1.482 -0.326801 0 -1.38357 -0.305375 0 -1.28953 -0.26503 0 -1.24556 -0.187805 0 -1.20258 -0.109351 0 -1.16232 -0.0338331 0 -1.12498 0.0383887 0 -1.0882 0.112464 0 -1.0505 0.190602 0 -1.01676 0.263515 0 -0.982322 0.339273 0 -0.946471 0.42017 0 -0.915736 0.494847 0 -0.93014 0.597103 0 -0.962797 0.695692 0 -1.02771 0.76609 0 -1.08862 0.835167 0 -1.14887 0.904739 0 -1.20841 0.97321 0 -1.26928 1.04077 0 -1.35501 1.02591 0 -1.44249 1.00952 0 -1.53015 0.992857 0 -1.61703 0.975638 0 -1.70471 0.957871 0 -1.79047 0.940407 0 -1.8954 0.918923 0 -1.99917 0.897563 0 -2.10284 0.875458 0 -2.18454 0.809552 0 -2.2521 0.727283 0 -2.26837 0.624407 0 -2.28157 0.523715 0 -2.29077 0.421877 0 -2.29511 0.320361 0 -2.29413 0.219791 0 -2.28861 0.119198 0 -2.27715 0.0160388 0 -2.17653 -0.0976055 0 -2.05954 -0.14844 0 -1.94167 -0.193677 0 -1.8262 -0.233977 0 -1.70916 -0.270508 0 -0.676414 3.56636 0 -0.77235 3.60059 0 -0.872211 3.62086 0 -0.950626 3.58699 0 -1.02876 3.55192 0 -1.10701 3.51687 0 -1.18622 3.48138 0 -1.26649 3.44472 0 -1.34732 3.40774 0 -1.42899 3.3704 0 -1.51074 3.33307 0 -1.59229 3.29576 0 -1.67462 3.25767 0 -1.7579 3.21896 0 -1.84067 3.18041 0 -1.92263 3.14063 0 -1.98409 3.04302 0 -1.97244 2.86855 0 -1.95917 2.69163 0 -1.94557 2.51816 0 -1.88082 2.36355 0 -1.77903 2.22737 0 -1.69689 2.18322 0 -1.61341 2.13706 0 -1.53028 2.08817 0 -1.44835 2.03976 0 -1.36697 1.99138 0 -1.28685 1.93992 0 -1.20725 1.88873 0 -1.12657 1.83866 0 -1.02473 1.88019 0 -0.923382 1.92201 0 -0.820758 1.96414 0 -0.717856 2.00583 0 -0.615444 2.04656 0 -0.513631 2.08723 0 -0.405797 2.21257 0 -0.358189 2.33251 0 -0.306929 2.45988 0 -0.254059 2.58937 0 -0.200712 2.71712 0 -0.146544 2.84329 0 -0.221597 2.96508 0 -0.303539 3.08537 0 -0.39217 3.20819 0 -0.48474 3.33091 0 -0.579544 3.45096 0 -6.45699 4.07268 0 -6.48593 3.95085 0 -6.49562 3.82639 0 -6.48557 3.70231 0 -6.42654 3.63734 0 -6.369 3.57434 0 -6.31166 3.51157 0 -6.25579 3.45059 0 -6.19935 3.38919 0 -6.14353 3.32835 0 -6.08721 3.26686 0 -6.03143 3.20591 0 -5.97567 3.14501 0 -5.92 3.08516 0 -5.79184 3.06922 0 -5.69053 3.09562 0 -5.58761 3.12345 0 -5.4553 3.15964 0 -5.32846 3.19539 0 -5.25569 3.27008 0 -5.1932 3.3535 0 -5.15989 3.43831 0 -5.12642 3.5234 0 -5.05956 3.69291 0 -4.9915 3.86406 0 -4.99923 4.02912 0 -5.08564 4.12284 0 -5.17176 4.21645 0 -5.23251 4.28256 0 -5.29337 4.34888 0 -5.35456 4.41566 0 -5.41689 4.48387 0 -5.47943 4.552 0 -5.58264 4.58089 0 -5.68978 4.595 0 -5.79915 4.59345 0 -5.90831 4.57582 0 -6.01371 4.54264 0 -6.1159 4.49327 0 -6.20942 4.42965 0 -6.28996 4.35559 0 -6.359 4.27071 0 -6.41536 4.1757 0 3.6177 0.91023 0 3.51374 0.89878 0 3.41245 0.867942 0 3.34425 0.802816 0 3.27607 0.734884 0 3.20972 0.665712 0 3.14522 0.594884 0 3.08316 0.523243 0 3.02251 0.449735 0 2.96265 0.373439 0 2.9037 0.294211 0 2.84536 0.211192 0 2.78994 0.125909 0 2.78811 -0.0130646 0 2.81751 -0.146112 0 2.87685 -0.269448 0 2.96377 -0.376566 0 3.11198 -0.437762 0 3.26145 -0.495682 0 3.41146 -0.551118 0 3.5606 -0.60337 0 3.70963 -0.652249 0 3.87988 -0.626817 0 4.00415 -0.520602 0 4.08017 -0.454991 0 4.15543 -0.389004 0 4.22969 -0.322599 0 4.30247 -0.256166 0 4.37443 -0.189174 0 4.44464 -0.121413 0 4.48604 -0.0103546 0 4.50598 0.104873 0 4.50445 0.220328 0 4.48124 0.333775 0 4.35924 0.438026 0 4.25924 0.521541 0 4.15375 0.597803 0 4.0473 0.671357 0 3.93925 0.741661 0 3.82511 0.805573 0 3.71146 0.866647 0 0.568006 -2.75051 0 0.506877 -2.77249 0 0.447358 -2.80319 0 0.377351 -2.85169 0 0.357643 -2.92289 0 0.338385 -2.99506 0 0.319376 -3.07012 0 0.302902 -3.1399 0 0.286399 -3.2152 0 0.27103 -3.28982 0 0.255415 -3.37046 0 0.239893 -3.45944 0 0.226692 -3.5414 0 0.217123 -3.60174 0 0.210993 -3.64981 0 0.250903 -3.72189 0 0.290526 -3.77641 0 0.397672 -3.82326 0 0.503026 -3.86595 0 0.597688 -3.90248 0 0.666881 -3.92803 0 0.75947 -3.95755 0 0.882624 -3.99304 0 0.987971 -3.96307 0 1.08535 -3.91734 0 1.20593 -3.80681 0 1.3212 -3.6978 0 1.40684 -3.56197 0 1.45618 -3.40846 0 1.40246 -3.25847 0 1.345 -3.12041 0 1.28413 -2.98636 0 1.21636 -2.85367 0 1.10918 -2.78956 0 1.00696 -2.75098 0 0.939502 -2.7544 0 0.863006 -2.7533 0 0.766603 -2.75175 0 0.672222 -2.75053 0 6.21109 0.563396 0 6.18013 0.473534 0 6.16116 0.381241 0 6.18749 0.300965 0 6.21585 0.220384 0 6.24476 0.139876 0 6.2745 0.0590798 0 6.30467 -0.0208489 0 6.33496 -0.0992049 0 6.36582 -0.177152 0 6.39786 -0.255982 0 6.43201 -0.334043 0 6.52319 -0.393298 0 6.62164 -0.439229 0 6.72569 -0.471095 0 6.83392 -0.487131 0 6.94319 -0.486397 0 7.09392 -0.45795 0 7.23716 -0.399585 0 7.30448 -0.359611 0 7.36824 -0.312955 0 7.42534 -0.174649 0 7.48132 -0.0357418 0 7.53673 0.104115 0 7.5915 0.243571 0 7.64587 0.382997 0 7.63196 0.488449 0 7.59121 0.557795 0 7.50667 0.694619 0 7.42159 0.832105 0 7.33553 0.969244 0 7.19974 1.0498 0 7.0493 1.0994 0 6.89195 1.11569 0 6.75349 1.00851 0 6.68402 0.954588 0 6.61518 0.899215 0 6.47782 0.786769 0 6.3429 0.67501 0 1.95613 6.80362 0 2.03385 6.67027 0 2.14609 6.5893 0 2.26909 6.52673 0 2.38336 6.53502 0 2.49684 6.54311 0 2.6108 6.55105 0 2.72575 6.55909 0 2.84049 6.56705 0 2.95518 6.57503 0 3.07039 6.58305 0 3.18408 6.59093 0 3.29719 6.5983 0 3.41073 6.60504 0 3.52612 6.70937 0 3.5727 6.83096 0 3.61846 6.95259 0 3.6744 7.10413 0 3.73046 7.25762 0 3.73175 7.36242 0 3.72113 7.46791 0 3.69873 7.57242 0 3.6647 7.67437 0 3.61979 7.77163 0 3.565 7.86241 0 3.5007 7.94727 0 3.42712 8.02575 0 3.31479 8.11769 0 3.18937 8.19168 0 3.05491 8.24589 0 2.91351 8.27967 0 2.76832 8.29166 0 2.62211 8.28153 0 2.45921 8.24334 0 2.30637 8.17839 0 2.16781 8.08935 0 2.04613 7.97841 0 1.94381 7.84872 0 1.8639 7.70337 0 1.80918 7.54553 0 1.7819 7.38151 0 1.7814 7.21782 0 1.80896 7.05719 0 1.88208 6.93061 0 1.97201 5.41617 0 1.89079 5.54764 0 1.76675 5.64207 0 1.63147 5.70656 0 1.52826 5.6963 0 1.42665 5.68417 0 1.32534 5.6705 0 1.22551 5.65548 0 1.12617 5.63907 0 1.02661 5.62104 0 0.928047 5.60147 0 0.828313 5.5799 0 0.72955 5.55603 0 0.62961 5.46443 0 0.545055 5.3585 0 0.507015 5.24457 0 0.470285 5.1312 0 0.420116 4.97683 0 0.433058 4.821 0 0.504008 4.73827 0 0.577079 4.65758 0 0.652828 4.57681 0 0.731017 4.49714 0 0.810537 4.42023 0 0.889636 4.34745 0 0.9683 4.27844 0 1.04893 4.21082 0 1.13733 4.13952 0 1.23174 4.06667 0 1.39524 4.07689 0 1.47652 4.12532 0 1.55988 4.17227 0 1.69733 4.24861 0 1.7848 4.29211 0 1.86782 4.33148 0 1.97812 4.38248 0 2.09099 4.50948 0 2.15558 4.66434 0 2.21827 4.82918 0 2.21985 4.91797 0 2.20768 5.00686 0 2.14659 5.11654 0 2.08477 5.22613 0 2.03126 5.31934 0 -0.495803 -0.825337 0 -0.658704 -0.812159 0 -0.808118 -0.798511 0 -0.953684 -0.783905 0 -1.07852 -0.825005 0 -1.128 -0.901912 0 -1.17457 -0.980267 0 -1.22147 -1.06004 0 -1.26799 -1.14115 0 -1.31261 -1.22218 0 -1.35583 -1.30396 0 -1.39709 -1.38583 0 -1.43736 -1.4677 0 -1.47765 -1.55244 0 -1.5163 -1.63655 0 -1.55219 -1.71862 0 -1.51113 -1.83346 0 -1.39888 -1.9378 0 -1.28631 -2.04198 0 -1.17376 -2.14493 0 -1.06153 -2.247 0 -0.94786 -2.34952 0 -0.828607 -2.45599 0 -0.702925 -2.56645 0 -0.606784 -2.54658 0 -0.508957 -2.52472 0 -0.414616 -2.5034 0 -0.323816 -2.48251 0 -0.23795 -2.46209 0 -0.158423 -2.44283 0 -0.0845007 -2.42476 0 -0.015045 -2.40767 0 0.0747844 -2.38318 0 0.105844 -2.25852 0 0.1419 -2.11344 0 0.174477 -1.98363 0 0.203356 -1.86966 0 0.231531 -1.7575 0 0.209824 -1.61463 0 0.137648 -1.5013 0 0.0737916 -1.39657 0 0.010536 -1.29074 0 -0.0444544 -1.1954 0 -0.104196 -1.08578 0 -0.156919 -0.984927 0 -0.258905 -0.901294 0 -0.375115 -0.836268 0 4.6269 -4.00082 0 4.52034 -3.94347 0 4.3805 -3.94622 0 4.2425 -3.97123 0 4.11084 -4.01715 0 4.06507 -4.0882 0 4.01981 -4.15967 0 3.97407 -4.23128 0 3.92794 -4.303 0 3.88108 -4.37527 0 3.83296 -4.44733 0 3.78367 -4.51949 0 3.73378 -4.59169 0 3.68385 -4.66359 0 3.63348 -4.73573 0 3.58399 -4.80854 0 3.57394 -4.93578 0 3.63987 -5.03977 0 3.70746 -5.14287 0 3.77572 -5.24623 0 3.84487 -5.35045 0 3.91417 -5.45452 0 3.98537 -5.5578 0 4.08434 -5.59532 0 4.18747 -5.62055 0 4.29318 -5.63227 0 4.39974 -5.63089 0 4.50527 -5.6165 0 4.60813 -5.58883 0 4.70112 -5.55139 0 4.78923 -5.50361 0 4.87169 -5.44603 0 4.9474 -5.37934 0 5.01446 -5.30454 0 5.07254 -5.2222 0 5.14363 -5.07863 0 5.18752 -4.92512 0 5.20253 -4.76799 0 5.18881 -4.61279 0 5.14719 -4.4648 0 5.0799 -4.32754 0 4.98947 -4.20428 0 4.87016 -4.13626 0 4.74898 -4.06863 0 -2.94972 5.79466 0 -2.81812 5.73492 0 -2.67927 5.69694 0 -2.53678 5.68128 0 -2.45394 5.73658 0 -2.37091 5.7917 0 -2.28732 5.84639 0 -2.20313 5.90027 0 -2.11842 5.95333 0 -2.03289 6.00597 0 -1.94675 6.05801 0 -1.85926 6.10971 0 -1.77197 6.16011 0 -1.6859 6.20923 0 -1.6244 6.30708 0 -1.5783 6.41129 0 -1.58095 6.54931 0 -1.58281 6.63849 0 -1.58546 6.72846 0 -1.61828 6.82023 0 -1.66175 6.90815 0 -1.71542 6.99177 0 -1.77793 7.06731 0 -1.84819 7.13548 0 -1.92613 7.19492 0 -2.00769 7.24417 0 -2.0944 7.28441 0 -2.1852 7.31447 0 -2.27901 7.33337 0 -2.3744 7.34181 0 -2.46911 7.33869 0 -2.56299 7.32581 0 -2.65468 7.3024 0 -2.74377 7.26923 0 -2.82893 7.2257 0 -2.90871 7.17206 0 -2.98245 7.11003 0 -3.04906 7.041 0 -3.10752 6.9652 0 -3.