<VTKFile type="PolyData" version="0.1" byte_order="LittleEndian">
  <PolyData>
    <Piece NumberOfPoints="3951" NumberOfPolys="88">
      <CellData>
        <DataArray type="Float64" Name="area" format="ascii">
1.87343 2.06128 2.89473 1.79128 2.54736 2.95985 2.6709 2.93433 2.35989 2.46515 1.75806 2.54393 1.6671 1.79728 1.28796 1.8863 1.8235 1.43054 1.42236 2.22541 1.65199 1.72314 1.17435 1.68611 2.76658 2.10895 2.2288 1.99597 2.03569 2.02874 1.87777 1.84825 2.28473 2.1214 1.91724 2.04586 1.50996 1.6787 1.94879 2.71527 1.36218 1.55513 2.03887 2.75167 2.96617 1.18529 2.13009 2.7866 2.60243 2.79869 2.7114 2.59203 2.38831 2.4816 2.33911 2.68701 2.29726 2.34328 2.17103 2.37122 1.964 1.88794 2.06205 1.76944 2.13855 1.85954 1.72467 1.63253 1.73717 1.98658 1.65055 1.73753 1.8648 1.87882 1.76486 1.46827 1.93932 1.9425 1.69718 1.64973 1.6023 1.456 1.37869 1.34877 1.54314 1.40793 1.4132 1.46385 
        </DataArray>
        <DataArray type="Float64" Name="u" NumberOfComponents="1" format="ascii">
0.0163078 8.64434e-05 0.00339356 4.49575e-05 0.00255718 0.000360498 3.24269e-05 0.00276959 5.90972e-05 0.000910377 0.000269226 0.000882872 0.00141984 0.00121984 0.00619164 1.46519e-05 0.000103595 5.94646e-06 0.00101938 0.00186918 5.42786e-05 0.00492987 0.000411495 0.00116757 0.000987454 0.003447 0.000729714 0.000158192 0.000262564 9.18156e-05 0.000645035 0.00460476 0.00141417 6.65633e-06 8.28227e-05 0.000143379 0.000911455 1.70705e-05 0.000483122 0.000402866 3.72636e-05 0.0080655 0.00287914 0.00381966 2.62208e-05 0.00166715 0.00015581 0.00263164 0.00645299 0.00112504 0.00294476 9.07092e-05 0.00033088 0.000409664 0.000488214 0.00131279 0.000248519 1.12883e-05 0.00106225 4.94375e-06 0.000160877 0.000240469 7.70633e-06 3.52403e-05 0.00225493 0.000632252 9.90243e-05 0.00240967 0.000925456 0.00876035 0.000166403 0.00011942 0.00014186 0.000682572 4.70343e-05 0.00109583 0.00218653 0.000610805 0.00194859 2.64798e-05 0.00959699 0.00151707 1.49751e-05 1.2113e-05 0.000987339 0.0082144 0.000373277 0.00673643 
        </DataArray>
        <DataArray type="Float64" Name="D" NumberOfComponents="1" format="ascii">
32 32 32 32 32 32 32 32 32 32 32 32 32 32 32 32 32 32 32 32 32 32 32 32 32 32 32 32 32 32 32 32 32 32 32 32 32 32 32 32 32 32 32 32 32 32 32 32 32 32 32 32 32 32 32 32 32 32 32 32 32 32 32 32 32 32 32 32 32 32 32 32 32 32 32 32 32 32 32 32 32 32 32 32 32 32 32 32 
        </DataArray>
        <DataArray type="Float64" Name="k" NumberOfComponents="1" format="ascii">
1 1 1 1 1 1 1 1 1 1 1 1 1 1 1 1 1 1 1 1 1 1 1 1 1 1 1 1 1 1 1 1 1 1 1 1 1 1 1 1 1 1 1 1 1 1 1 1 1 1 1 1 1 1 1 1 1 1 1 1 1 1 1 1 1 1 1 1 1 1 1 1 1 1 1 1 1 1 1 1 1 1 1 1 1 1 1 1 
        </DataArray>
        <DataArray type="Float64" Name="p" NumberOfComponents="1" format="ascii">
1 0 0 0 0 0 0 0 0 0 0 0 0 0 0 0 0 0 0 0 0 0 0 0 0 0 0 0 0 0 0 0 0 0 0 0 0 0 0 0 0 0 0 0 0 0 0 0 0 0 0 0 0 0 0 0 0 0 0 0 0 0 0 0 0 0 0 0 0 0 0 0 0 0 0 0 0 0 0 0 0 0 0 0 0 0 0 0 
        </DataArray>
        <DataArray type="Float64" Name="threshold" NumberOfComponents="1" format="ascii">
0.001 0.001 0.001 0.001 0.001 0.001 0.001 0.001 0.001 0.001 0.001 0.001 0.001 0.001 0.001 0.001 0.001 0.001 0.001 0.001 0.001 0.001 0.001 0.001 0.001 0.001 0.001 0.001 0.001 0.001 0.001 0.001 0.001 0.001 0.001 0.001 0.001 0.001 0.001 0.001 0.001 0.001 0.001 0.001 0.001 0.001 0.001 0.001 0.001 0.001 0.001 0.001 0.001 0.001 0.001 0.001 0.001 0.001 0.001 0.001 0.001 0.001 0.001 0.001 0.001 0.001 0.001 0.001 0.001 0.001 0.001 0.001 0.001 0.001 0.001 0.001 0.001 0.001 0.001 0.001 0.001 0.001 0.001 0.001 0.001 0.001 0.001 0.001 
        </DataArray>
        <DataArray type="Int8" Name="cell_type" format="ascii">
0 1 1 1 1 1 1 1 1 1 1 1 1 1 0 1 1 1 1 1 1 1 1 1 1 1 1 1 1 1 1 1 1 1 1 1 1 1 1 1 1 0 1 1 1 1 1 1 0 1 1 1 1 1 1 1 1 1 1 1 1 1 1 1 1 1 1 1 1 0 1 1 1 1 1 1 1 1 1 1 0 1 1 1 1 0 1 0 
        </DataArray>
        <DataArray type="Float64" Name="perimeter" format="ascii">
5.04698 5.28244 6.25077 4.9385 5.86065 6.31657 6.019 6.21578 5.61209 5.75985 4.86183 5.87651 4.68846 4.88236 4.21672 4.98103 5.09447 4.31717 4.37997 5.48901 4.6581 4.80981 3.94564 4.72557 5.99061 5.31298 5.49831 5.12235 5.17404 5.27498 5.07853 5.0636 5.48982 5.29527 5.00679 5.18045 4.51463 4.74549 5.03159 6.06204 4.27689 4.696 5.36885 6.08024 6.33107 4.03485 5.34207 6.08674 6.00296 6.00714 6.09491 5.85642 5.62833 5.69657 5.62941 5.9024 5.65517 5.53547 5.44209 5.56077 5.29475 5.02694 5.27584 4.88705 5.38875 4.98487 4.76208 4.71767 4.78759 5.2174 4.71102 4.83617 4.9917 4.96478 4.87519 4.4793 5.13183 5.00776 4.81099 4.61501 4.72089 4.43425 4.23078 4.16995 4.63993 4.35381 4.41758 4.80689 
        </DataArray>
        <DataArray type="Float64" Name="neighbors" format="ascii">
5 5 7 6 5 6 8 5 5 6 5 7 5 4 4 5 5 3 5 6 4 4 5 4 3 6 6 3 3 5 6 5 3 3 5 3 4 4 2 8 6 4 6 6 7 5 7 6 5 3 7 4 5 3 6 5 6 3 5 2 5 6 4 3 5 5 4 6 3 5 5 6 4 3 5 5 5 4 5 2 4 6 4 4 6 5 6 5 
        </DataArray>
      </CellData>
      <Points>
        <DataArray type="Float64" Name="Points" NumberOfComponents="3" format="ascii">
2.51486 3.07526 0 2.4074 3.01346 0 2.28388 2.94385 0 2.1872 2.83571 0 2.17982 2.74414 0 2.17234 2.65373 0 2.16377 2.56652 0 2.15312 2.48288 0 2.14069 2.39556 0 2.12704 2.30803 0 2.11135 2.2179 0 2.09373 2.12608 0 2.07561 2.03592 0 2.05657 1.94631 0 2.03622 1.85295 0 2.09449 1.75816 0 2.16679 1.6732 0 2.2304 1.61564 0 2.35627 1.60773 0 2.45719 1.6045 0 2.5581 1.60235 0 2.66313 1.60118 0 2.76696 1.60113 0 2.86913 1.60419 0 2.97146 1.60785 0 3.0735 1.61215 0 3.17498 1.61829 0 3.26097 1.67685 0 3.33948 1.74564 0 3.4063 1.82389 0 3.46157 1.9107 0 3.50399 2.00766 0 3.52914 2.1108 0 3.53375 2.21629 0 3.51555 2.31798 0 3.48133 2.4116 0 3.4392 2.50017 0 3.39918 2.59793 0 3.39389 2.69102 0 3.3781 2.83379 0 3.3013 2.97446 0 3.195 3.07806 0 3.04235 3.1262 0 2.90125 3.13237 0 2.75215 3.1375 0 2.61484 3.13172 0 -1.90947 -4.04748 0 -1.83322 -3.89663 0 -1.75673 -3.74196 0 -1.74612 -3.59188 0 -1.80048 -3.51449 0 -1.85879 -3.43858 0 -1.91852 -3.36333 0 -1.97889 -3.28987 0 -2.04133 -3.21664 0 -2.10638 -3.14298 0 -2.17409 -3.06909 0 -2.2452 -2.99483 0 -2.3185 -2.92111 0 -2.39295 -2.84902 0 -2.4698 -2.77769 0 -2.54807 -2.70757 0 -2.659 -2.69706 0 -2.73532 -2.75145 0 -2.81203 -2.80674 0 -2.88846 -2.86438 0 -2.96521 -2.924 0 -3.04141 -2.98464 0 -3.11669 -3.04518 0 -3.19142 -3.10553 0 -3.2631 -3.16601 0 -3.3321 -3.22808 0 -3.39904 -3.29184 0 -3.43842 -3.39943 0 -3.45614 -3.51348 0 -3.42159 -3.62925 0 -3.38436 -3.74246 0 -3.34476 -3.8552 0 -3.3026 -3.96773 0 -3.23388 -4.11819 0 -3.15297 -4.27312 0 -3.05472 -4.35009 0 -2.94186 -4.41053 0 -2.84699 -4.41375 0 -2.75294 -4.41466 0 -2.6594 -4.41384 0 -2.56455 -4.41169 0 -2.46592 -4.40701 0 -2.3637 -4.40118 0 -2.22841 -4.39221 0 -2.09498 -4.3808 0 -2.03204 -4.27096 0 -1.96997 -4.15926 0 1.2163 3.36592 0 1.26652 3.48618 0 1.27254 3.59059 0 1.28008 3.69328 0 1.29 3.78778 0 1.30281 3.88256 0 1.25501 4.04222 0 1.17105 4.11596 0 1.09521 4.18168 0 1.02458 4.24485 0 0.955284 4.30838 0 0.88463 4.37469 0 0.812483 4.44377 0 0.739137 4.51479 0 0.665579 4.58759 0 0.593458 4.66191 0 0.522344 4.73815 0 0.452257 4.81382 0 0.333445 4.84343 0 0.219733 4.80566 0 0.0748904 4.75803 0 -0.065997 4.71622 0 -0.203797 4.6766 0 -0.341209 4.63746 0 -0.478644 4.59924 0 -0.554916 4.50692 0 -0.61904 4.40774 0 -0.671744 4.30268 0 -0.682409 4.18369 0 -0.694912 4.06323 0 -0.707704 3.94228 0 -0.695062 3.76881 0 -0.648433 3.59884 0 -0.562747 3.49572 0 -0.480503 3.3938 0 -0.401023 3.29155 0 -0.323868 3.18897 0 -0.249237 3.08633 0 -0.177845 2.98342 0 -0.107842 2.87648 0 0.0311968 2.90283 0 0.174693 2.92625 0 0.321629 2.94073 0 0.471998 2.94689 0 0.622947 2.94453 0 0.719192 2.9432 0 0.818851 2.98358 0 0.912814 3.03354 0 0.992042 3.10713 0 1.06942 3.17846 0 1.14602 3.24908 0 -0.498558 -4.94821 0 -0.550799 -4.86059 0 -0.634961 -4.81173 0 -0.726314 -4.77374 0 -0.807372 -4.78837 0 -0.887481 -4.80172 0 -0.972593 -4.81562 0 -1.06191 -4.83002 0 -1.15106 -4.84431 0 -1.23893 -4.85813 0 -1.32709 -4.87163 0 -1.41345 -4.88448 0 -1.5007 -4.89689 0 -1.5923 -4.90958 0 -1.68139 -4.92269 0 -1.77477 -4.98852 0 -1.85764 -5.06777 0 -1.93045 -5.22651 0 -1.96887 -5.30963 0 -2.0059 -5.3892 0 -2.01889 -5.51305 0 -2.01596 -5.61756 0 -1.94308 -5.76387 0 -1.87106 -5.90836 0 -1.79976 -6.05053 0 -1.67238 -6.15936 0 -1.54237 -6.17276 0 -1.41403 -6.18386 0 -1.3286 -6.19081 0 -1.23869 -6.19756 0 -1.14814 -6.20355 0 -1.05594 -6.20965 0 -0.964393 -6.21497 0 -0.872807 -6.16771 0 -0.783617 -6.10142 0 -0.74356 -6.01454 0 -0.705578 -5.93155 0 -0.669232 -5.85239 0 -0.631981 -5.77857 0 -0.595511 -5.70637 0 -0.555128 -5.63132 0 -0.512481 -5.55258 0 -0.468518 -5.47188 0 -0.422229 -5.39182 0 -0.376047 -5.31006 0 -0.371264 -5.17713 0 -0.411138 -5.10066 0 -0.454165 -5.02474 0 5.53816 2.30028 0 5.38762 2.27923 0 5.31559 2.22269 0 5.25131 2.16056 0 5.19489 2.09255 0 5.1466 2.01842 0 5.15164 1.91705 0 5.15907 1.81299 0 5.16707 1.707 0 5.17547 1.60157 0 5.18451 1.49743 0 5.19543 1.3931 0 5.20961 1.29047 0 5.22492 1.18854 0 5.24162 1.08582 0 5.25993 0.983094 0 5.27998 0.879862 0 5.30215 0.776013 0 5.41668 0.672983 0 5.53292 0.64478 0 5.65181 0.615892 0 5.76935 0.58672 0 5.88617 0.557934 0 6.00722 0.561618 0 6.12688 0.583482 0 6.23748 0.668723 0 6.34888 0.755864 0 6.46172 0.844078 0 6.57757 0.934455 0 6.69562 1.0231 0 6.8136 1.11206 0 6.86665 1.23621 0 6.89993 1.3656 0 6.91261 1.4983 0 6.90404 1.63148 0 6.85837 1.71271 0 6.81197 1.79366 0 6.74924 1.90389 0 6.68765 2.01375 0 6.62838 2.12304 0 6.56929 2.23244 0 6.5113 2.33787 0 6.39331 2.41916 0 6.27326 2.40379 0 6.15243 2.38655 0 6.03208 2.36926 0 5.91074 2.35189 0 5.78677 2.33475 0 5.66225 2.31747 0 -2.67243 5.25226 0 -2.76052 5.29543 0 -2.91609 5.34841 0 -3.07614 5.37665 0 -3.19543 5.31401 0 -3.31794 5.25143 0 -3.44234 5.18954 0 -3.56665 5.12709 0 -3.69127 5.06487 0 -3.81752 5.00441 0 -3.88303 4.94537 0 -3.94218 4.88235 0 -3.98013 4.75049 0 -4.02117 4.6163 0 -4.06583 4.48066 0 -4.11446 4.34498 0 -4.16632 4.21142 0 -4.15547 4.07261 0 -4.08516 3.99184 0 -3.99345 3.88325 0 -3.90483 3.77429 0 -3.81876 3.66334 0 -3.7395 3.54564 0 -3.66419 3.42701 0 -3.5909 3.30478 0 -3.48678 3.26269 0 -3.38027 3.23281 0 -3.27247 3.21564 0 -3.16291 3.21192 0 -3.01553 3.2758 0 -2.86682 3.33894 0 -2.71934 3.40016 0 -2.57169 3.4589 0 -2.48972 3.59016 0 -2.46762 3.73129 0 -2.43965 3.87543 0 -2.40679 4.0201 0 -2.37005 4.16273 0 -2.32944 4.30381 0 -2.28513 4.44292 0 -2.23833 4.57992 0 -2.26254 4.74235 0 -2.34708 4.85284 0 -2.4311 4.9663 0 -2.5113 5.08226 0 -2.58845 5.20007 0 -5.38293 -1.44675 0 -5.50693 -1.49403 0 -5.63379 -1.53852 0 -5.73511 -1.62512 0 -5.75362 -1.70361 0 -5.77306 -1.78194 0 -5.79449 -1.85859 0 -5.81777 -1.93398 0 -5.84329 -2.00977 0 -5.87073 -2.08501 0 -5.90004 -2.16038 0 -5.93074 -2.23509 0 -5.96307 -2.30927 0 -5.99835 -2.38524 0 -6.0355 -2.46193 0 -6.01909 -2.57688 0 -5.95832 -2.66582 0 -5.87389 -2.79473 0 -5.79311 -2.93053 0 -5.71613 -3.06807 0 -5.64387 -3.20882 0 -5.56351 -3.28167 0 -5.47974 -3.34657 0 -5.38444 -3.3764 0 -5.28882 -3.40697 0 -5.1955 -3.4349 0 -5.06548 -3.42494 0 -4.93663 -3.32119 0 -4.80799 -3.21916 0 -4.72598 -3.15613 0 -4.64326 -3.09344 0 -4.55994 -3.0313 0 -4.47798 -2.9706 0 -4.41076 -2.81967 0 -4.40055 -2.66384 0 -4.38329 -2.50703 0 -4.35985 -2.3479 0 -4.34072 -2.23209 0 -4.31601 -2.11675 0 -4.32187 -1.97832 0 -4.34341 -1.83763 0 -4.40743 -1.73215 0 -4.46979 -1.62535 0 -4.5304 -1.51769 0 -4.58637 -1.40992 0 -4.69721 -1.37667 0 -4.80762 -1.3433 0 -4.91839 -1.30887 0 -5.07269 -1.30665 0 -5.22654 -1.37959 0 5.64757 5.28093 0 5.60936 5.3684 0 5.52292 5.51408 0 5.41357 5.64317 0 5.28309 5.75109 0 5.13534 5.83101 0 5.01603 5.8216 0 4.89911 5.8121 0 4.785 5.80286 0 4.66942 5.79387 0 4.55374 5.78521 0 4.43828 5.77675 0 4.32302 5.76822 0 4.21027 5.76018 0 4.09853 5.75136 0 3.99013 5.67013 0 3.8976 5.57525 0 3.85474 5.45572 0 3.80339 5.31156 0 3.75123 5.16644 0 3.69841 5.02132 0 3.70147 4.90561 0 3.7169 4.79466 0 3.74557 4.68649 0 3.78843 4.58275 0 3.84343 4.48383 0 3.90828 4.38731 0 4.0661 4.31907 0 4.14505 4.28451 0 4.22533 4.24949 0 4.30506 4.21283 0 4.38422 4.17655 0 4.54472 4.09931 0 4.70421 4.01695 0 4.84986 3.93486 0 5.01053 3.94916 0 5.15245 3.99156 0 5.28503 4.06421 0 5.41154 4.14049 0 5.51681 4.27838 0 5.59701 4.42973 0 5.61337 4.5265 0 5.62986 4.62343 0 5.64626 4.71883 0 5.66558 4.81474 0 5.68537 4.91149 0 5.70492 5.0088 0 5.69507 5.10136 0 5.67506 5.19201 0 2.06035 -6.73374 0 2.14336 -6.62812 0 2.21034 -6.51188 0 2.26017 -6.38805 0 2.28881 -6.26011 0 2.25566 -6.15797 0 2.22209 -6.05554 0 2.18864 -5.95367 0 2.1557 -5.85316 0 2.12263 -5.75231 0 2.08934 -5.65103 0 2.05637 -5.55082 0 2.02387 -5.45151 0 1.99165 -5.35248 0 1.9577 -5.25389 0 1.79989 -5.23329 0 1.64076 -5.21004 0 1.54739 -5.19428 0 1.45162 -5.17796 0 1.33053 -5.15697 0 1.1695 -5.18073 0 1.01082 -5.22817 0 0.904278 -5.31138 0 0.799349 -5.39529 0 0.729866 -5.52812 0 0.731653 -5.61685 0 0.734577 -5.70627 0 0.736943 -5.79519 0 0.733056 -5.88308 0 0.726848 -5.9951 0 0.718803 -6.10537 0 0.707756 -6.21765 0 0.692593 -6.33183 0 0.713294 -6.46408 0 0.753306 -6.59381 0 0.827815 -6.68025 0 0.90404 -6.7691 0 0.981234 -6.85923 0 1.05744 -6.95078 0 1.18688 -6.99262 0 1.32125 -7.01479 0 1.456 -7.01888 0 1.58886 -7.0026 0 1.71742 -6.96646 0 1.83687 -6.91268 0 1.9557 -6.83238 0 3.70835 -3.34685 0 3.79208 -3.38237 0 3.95321 -3.38218 0 4.11181 -3.35275 0 4.26413 -3.2965 0 4.3229 -3.20739 0 4.38082 -3.11647 0 4.43856 -3.02395 0 4.49594 -2.93116 0 4.55275 -2.83819 0 4.60842 -2.74595 0 4.66304 -2.65465 0 4.71797 -2.5622 0 4.77267 -2.46865 0 4.82483 -2.3751 0 4.82024 -2.21565 0 4.76254 -2.07929 0 4.70683 -1.94593 0 4.62629 -1.86556 0 4.53511 -1.79748 0 4.43512 -1.74068 0 4.3279 -1.70432 0 4.21931 -1.66725 0 4.10978 -1.62779 0 3.99648 -1.61571 0 3.88162 -1.6182 0 3.74165 -1.70039 0 3.59878 -1.78118 0 3.50854 -1.83091 0 3.41876 -1.87903 0 3.32803 -1.92333 0 3.23805 -1.96613 0 3.1492 -2.0074 0 3.05981 -2.04814 0 2.98443 -2.11516 0 2.91726 -2.19406 0 2.93029 -2.34231 0 2.93949 -2.45032 0 2.94852 -2.55828 0 2.9583 -2.66476 0 2.96939 -2.77128 0 2.98052 -2.87661 0 2.99277 -2.98378 0 3.11304 -3.09886 0 3.28309 -3.16736 0 3.4534 -3.23815 0 3.62442 -3.31023 0 -4.58281 2.16751 0 -4.61308 2.0283 0 -4.60123 1.90016 0 -4.5606 1.77725 0 -4.49304 1.72198 0 -4.42366 1.66747 0 -4.35301 1.61293 0 -4.28177 1.559 0 -4.21139 1.50702 0 -4.14207 1.45723 0 -4.07355 1.40919 0 -4.00407 1.36117 0 -3.93392 1.31287 0 -3.86357 1.26463 0 -3.79169 1.21734 0 -3.66653 1.22197 0 -3.58217 1.27051 0 -3.47785 1.33448 0 -3.37794 1.39935 0 -3.27952 1.46771 0 -3.1816 1.54299 0 -3.11451 1.66183 0 -3.07377 1.79215 0 -3.10637 1.90992 0 -3.15282 2.07523 0 -3.20562 2.23558 0 -3.25915 2.39202 0 -3.31353 2.54744 0 -3.373 2.70334 0 -3.45369 2.75341 0 -3.54049 2.79052 0 -3.6327 2.81437 0 -3.72709 2.82504 0 -3.82103 2.82226 0 -3.90893 2.78109 0 -4.02487 2.72578 0 -4.14322 2.66916 0 -4.26418 2.61111 0 -4.38671 2.55209 0 -4.50887 2.49232 0 -4.54689 2.32865 0 2.35866 -1.74348 0 2.27993 -1.68451 0 2.17514 -1.6518 0 2.06728 -1.62904 0 1.90609 -1.65119 0 1.80886 -1.66367 0 1.70981 -1.67798 0 1.67903 -1.7649 0 1.64328 -1.86693 0 1.60765 -1.95693 0 1.57175 -2.03639 0 1.52892 -2.12646 0 1.48461 -2.21555 0 1.44229 -2.29616 0 1.39819 -2.37493 0 1.34878 -2.45727 0 1.2949 -2.54366 0 1.23898 -2.63359 0 1.22708 -2.72703 0 1.22277 -2.81277 0 1.25815 -2.88616 0 1.29472 -2.95932 0 1.32623 -3.03637 0 1.35809 -3.11534 0 1.38941 -3.19909 0 1.41798 -3.28547 0 1.44742 -3.37315 0 1.51542 -3.44647 0 1.59624 -3.51453 0 1.68917 -3.53544 0 1.7844 -3.55571 0 1.88019 -3.57699 0 1.97502 -3.60065 0 2.06887 -3.62303 0 2.18108 -3.60048 0 2.2902 -3.56549 0 2.36527 -3.50552 0 2.44114 -3.44591 0 2.53484 -3.37375 0 2.63105 -3.30231 0 2.72771 -3.23201 0 2.82504 -3.16377 0 2.92306 -3.09784 0 2.98138 -2.98717 0 2.9717 -2.88767 0 2.96117 -2.78847 0 2.94878 -2.66979 0 2.93782 -2.55039 0 2.92774 -2.42951 0 2.91732 -2.30807 0 2.90512 -2.18863 0 2.84051 -2.10575 0 2.76742 -2.02839 0 2.68464 -1.97426 0 2.60184 -1.91927 0 2.51845 -1.86321 0 2.43776 -1.80325 0 0.214447 5.96939 0 0.148328 6.03855 0 0.0516038 6.07893 0 -0.0509233 6.10521 0 -0.12884 6.07796 0 -0.207056 6.04889 0 -0.284349 6.01948 0 -0.362547 5.98945 0 -0.438879 5.95937 0 -0.512703 5.92946 0 -0.587989 5.89826 0 -0.665152 5.86538 0 -0.74173 5.83276 0 -0.816358 5.80066 0 -0.87495 5.69981 0 -0.914477 5.59027 0 -0.919052 5.49338 0 -0.925299 5.35067 0 -0.931338 5.21199 0 -0.93626 5.07616 0 -0.88983 4.97518 0 -0.829934 4.88233 0 -0.757589 4.79668 0 -0.672046 4.72123 0 -0.579269 4.65935 0 -0.478887 4.61148 0 -0.40102 4.63116 0 -0.322504 4.6531 0 -0.164334 4.69826 0 -0.0846338 4.72121 0 -0.00407206 4.74497 0 0.0783652 4.76963 0 0.162163 4.7972 0 0.247103 4.82523 0 0.335204 4.85588 0 0.433796 4.97752 0 0.475707 5.10757 0 0.5171 5.23645 0 0.557849 5.36268 0 0.551565 5.49967 0 0.519113 5.63377 0 0.460768 5.70164 0 0.399825 5.77005 0 0.337741 5.83784 0 0.27566 5.90435 0 8.04762 2.61527 0 7.97989 2.73207 0 7.89267 2.83493 0 7.78627 2.92191 0 7.69581 2.93599 0 7.60562 2.94826 0 7.51738 2.95987 0 7.4299 2.97125 0 7.34201 2.98262 0 7.25455 2.99384 0 7.16738 3.00496 0 7.08014 3.01612 0 6.99414 3.0271 0 6.91 3.03596 0 6.83526 2.98961 0 6.76394 2.9357 0 6.68952 2.81247 0 6.61562 2.68706 0 6.52354 2.52651 0 6.51738 2.43506 0 6.52122 2.34273 0 6.60233 2.19212 0 6.6832 2.04272 0 6.73916 1.94215 0 6.79576 1.8422 0 6.85318 1.74172 0 6.91073 1.64184 0 7.00858 1.58734 0 7.11431 1.5473 0 7.22823 1.5247 0 7.3455 1.52026 0 7.43202 1.57254 0 7.5186 1.6266 0 7.60476 1.68032 0 7.68994 1.73338 0 7.77405 1.78797 0 7.85846 1.84308 0 7.94302 1.89884 0 8.02898 1.95492 0 8.07406 2.05705 0 8.10483 2.16617 0 8.11739 2.28166 0 8.11139 2.39851 0 8.08809 2.50878 0 2.28282 4.74454 0 2.23545 4.63673 0 2.18241 4.51877 0 2.18595 4.38318 0 2.2102 4.27827 0 2.27782 4.1931 0 2.3349 4.12131 0 2.39193 4.04657 0 2.44825 3.97175 0 2.50625 3.89524 0 2.55441 3.83198 0 2.60624 3.76363 0 2.67051 3.67734 0 2.74555 3.5771 0 2.8332 3.55397 0 2.93234 3.54385 0 3.01147 3.54503 0 3.09031 3.55961 0 3.17691 3.67187 0 3.22997 3.74295 0 3.26632 3.79469 0 3.3083 3.85515 0 3.35082 3.91774 0 3.39502 3.98539 0 3.44775 4.06938 0 3.50794 4.16561 0 3.56611 4.26406 0 3.55868 4.36265 0 3.53476 4.4592 0 3.49417 4.55134 0 3.43776 4.63635 0 3.37005 4.71126 0 3.29285 4.77434 0 3.18895 4.79428 0 3.09 4.80803 0 2.99487 4.81823 0 2.90786 4.82519 0 2.82565 4.82992 0 2.7373 4.8322 0 2.648 4.83293 0 2.55881 4.83125 0 2.46571 4.82747 0 2.37322 4.82055 0 -1.91654 -7.4491 0 -1.85309 -7.5136 0 -1.75022 -7.59314 0 -1.63408 -7.65516 0 -1.51114 -7.69834 0 -1.43002 -7.66911 0 -1.34961 -7.63838 0 -1.26846 -7.60741 0 -1.18638 -7.57568 0 -1.10371 -7.54284 0 -1.02086 -7.50931 0 -0.937926 -7.47476 0 -0.854866 -7.43879 0 -0.772505 -7.4019 0 -0.691597 -7.36557 0 -0.610776 -7.32803 0 -0.538357 -7.22818 0 -0.511808 -7.09268 0 -0.493094 -6.99781 0 -0.474325 -6.90068 0 -0.495915 -6.79552 0 -0.531805 -6.69642 0 -0.592448 -6.60836 0 -0.64947 -6.52456 0 -0.708103 -6.43816 0 -0.781225 -6.35771 0 -0.869203 -6.28372 0 -0.961945 -6.22636 0 -1.0512 -6.21993 0 -1.13968 -6.2141 0 -1.25044 -6.20674 0 -1.35874 -6.19847 0 -1.46492 -6.18955 0 -1.56925 -6.1803 0 -1.67587 -6.1703 0 -1.78923 -6.2249 0 -1.84012 -6.30627 0 -1.89195 -6.38932 0 -1.94269 -6.46975 0 -1.9944 -6.55144 0 -2.05011 -6.63834 0 -2.10574 -6.72694 0 -2.11987 -6.82657 0 -2.12308 -6.92456 0 -2.10535 -7.08029 0 -2.0556 -7.23363 0 -2.01811 -7.30788 0 -1.97165 -7.37999 0 -5.09105 0.156685 0 -5.16561 0.0695278 0 -5.22596 -0.0288422 0 -5.26839 -0.134752 0 -5.24399 -0.24475 0 -5.22017 -0.351573 0 -5.19587 -0.459521 0 -5.17162 -0.566136 0 -5.14655 -0.672592 0 -5.12143 -0.778282 0 -5.09631 -0.883857 0 -5.07087 -0.99085 0 -5.04575 -1.09729 0 -5.0207 -1.20286 0 -4.91052 -1.30048 0 -4.74803 -1.35105 0 -4.58489 -1.39862 0 -4.50136 -1.30743 0 -4.42057 -1.21441 0 -4.34129 -1.12149 0 -4.26286 -1.02806 0 -4.18561 -0.934455 0 -4.10953 -0.841229 0 -4.03462 -0.748565 0 -3.96068 -0.656053 0 -3.88573 -0.561794 0 -3.80996 -0.465922 0 -3.73519 -0.368612 0 -3.73342 -0.19531 0 -3.81411 -0.0373033 0 -3.87598 0.0797037 0 -3.94214 0.194276 0 -4.06904 0.279823 0 -4.17668 0.282604 0 -4.28377 0.28325 0 -4.39093 0.283453 0 -4.49895 0.283187 0 -4.60691 0.282424 0 -4.71533 0.281304 0 -4.82348 0.279458 0 -4.93134 0.276253 0 -5.01526 0.222412 0 -4.97314 -6.11583 0 -4.87826 -6.11983 0 -4.75586 -6.11326 0 -4.64906 -6.08535 0 -4.5451 -6.04303 0 -4.46836 -5.99186 0 -4.37168 -5.90635 0 -4.30807 -5.82447 0 -4.29706 -5.76418 0 -4.28457 -5.69543 0 -4.27295 -5.63001 0 -4.2611 -5.56594 0 -4.25001 -5.50763 0 -4.23813 -5.44623 0 -4.22482 -5.37856 0 -4.20921 -5.30176 0 -4.19572 -5.23033 0 -4.24073 -5.09949 0 -4.33617 -5.02765 0 -4.42232 -4.96765 0 -4.51548 -4.90419 0 -4.60976 -4.84133 0 -4.71625 -4.77235 0 -4.83497 -4.70058 0 -4.97531 -4.70112 0 -5.08297 -4.78936 0 -5.19261 -4.87954 0 -5.27226 -4.94538 0 -5.34826 -5.00886 0 -5.41156 -5.06182 0 -5.46775 -5.11131 0 -5.49445 -5.16799 0 -5.52336 -5.25215 0 -5.54387 -5.35006 0 -5.55063 -5.45109 0 -5.54373 -5.54898 0 -5.52104 -5.65027 0 -5.45392 -5.7984 0 -5.35578 -5.92345 0 -5.21626 -6.03203 0 -5.06664 -6.09627 0 -1.55382 -0.295786 0 -1.44626 -0.322508 0 -1.34928 -0.302163 0 -1.25708 -0.26725 0 -1.2154 -0.192509 0 -1.17418 -0.116221 0 -1.13493 -0.0419713 0 -1.09676 0.0295646 0 -1.05876 0.102505 0 -1.01989 0.180068 0 -0.986011 0.253409 0 -0.95198 0.329933 0 -0.915738 0.413431 0 -0.885035 0.491241 0 -0.896588 0.595042 0 -0.923278 0.697114 0 -0.988851 0.770362 0 -1.0489 0.844261 0 -1.10981 0.918282 0 -1.1694 0.99042 0 -1.23054 1.06174 0 -1.31726 1.04596 0 -1.40586 1.02872 0 -1.49287 1.01121 0 -1.57908 0.993561 0 -1.66645 0.975573 0 -1.75145 0.957966 0 -1.85486 0.93582 0 -1.9574 0.913696 0 -2.06091 0.890451 0 -2.14174 0.823145 0 -2.20816 0.740806 0 -2.22384 0.637267 0 -2.23654 0.536589 0 -2.24545 0.434569 0 -2.24986 0.333261 0 -2.24976 0.232587 0 -2.24403 0.132697 0 -2.23119 0.0303856 0 -2.12853 -0.0826089 0 -2.01365 -0.133807 0 -1.89872 -0.180432 0 -1.78505 -0.223138 0 -1.66841 -0.262364 0 -0.653543 3.58832 0 -0.747372 3.62463 0 -0.846191 3.64695 0 -0.924057 3.6131 0 -1.00241 3.57727 0 -1.08218 3.54053 0 -1.16351 3.50261 0 -1.24445 3.46344 0 -1.32448 3.42451 0 -1.40451 3.38535 0 -1.48435 3.34608 0 -1.56381 3.30661 0 -1.64456 3.26669 0 -1.72663 3.22614 0 -1.80887 3.18552 0 -1.8927 3.14291 0 -1.95454 3.04551 0 -1.94232 2.87261 0 -1.92806 2.6987 0 -1.9129 2.52653 0 -1.84675 2.37278 0 -1.74348 2.24291 0 -1.65998 2.2005 0 -1.57575 2.15515 0 -1.4925 2.1077 0 -1.41037 2.06086 0 -1.32888 2.01422 0 -1.24765 1.96405 0 -1.16654 1.91371 0 -1.08515 1.8649 0 -0.982769 1.90632 0 -0.880672 1.94778 0 -0.778172 1.98952 0 -0.676106 2.03127 0 -0.575875 2.07257 0 -0.476966 2.11527 0 -0.375074 2.24269 0 -0.326981 2.36134 0 -0.275052 2.48844 0 -0.221735 2.61775 0 -0.168898 2.74419 0 -0.116717 2.8683 0 -0.19304 2.98801 0 -0.276371 3.1069 0 -0.367127 3.23011 0 -0.460658 3.35223 0 -0.555567 3.47112 0 -6.41296 4.00772 0 -6.43776 3.88505 0 -6.44349 3.76193 0 -6.42988 3.63943 0 -6.36987 3.57469 0 -6.31029 3.51086 0 -6.25153 3.44805 0 -6.19464 3.38734 0 -6.13715 3.32618 0 -6.08131 3.26642 0 -6.02545 3.20596 0 -5.97034 3.146 0 -5.91578 3.08605 0 -5.86144 3.0265 0 -5.73601 3.01167 0 -5.63481 3.03858 0 -5.53241 3.06846 0 -5.401 3.10829 0 -5.27634 3.14838 0 -5.20397 3.22679 0 -5.14215 3.31475 0 -5.10943 3.40141 0 -5.07639 3.48796 0 -5.01119 3.6586 0 -4.94629 3.8282 0 -4.95629 3.98984 0 -5.04274 4.07923 0 -5.12872 4.1683 0 -5.18994 4.23189 0 -5.25177 4.29627 0 -5.31407 4.36099 0 -5.37797 4.42718 0 -5.44382 4.49449 0 -5.54652 4.52379 0 -5.65385 4.53889 0 -5.76284 4.53864 0 -5.87153 4.52281 0 -5.97653 4.49083 0 -6.07905 4.44058 0 -6.17282 4.37476 0 -6.25255 4.29781 0 -6.31986 4.20931 0 -6.37375 4.112 0 3.60801 0.99385 0 3.50899 0.98138 0 3.41261 0.950068 0 3.3498 0.883608 0 3.28935 0.814606 0 3.23169 0.745535 0 3.17527 0.675644 0 3.11892 0.603842 0 3.06205 0.529196 0 3.00453 0.451244 0 2.94675 0.37048 0 2.88881 0.286423 0 2.83451 0.200428 0 2.83193 0.0697599 0 2.85775 -0.0597937 0 2.91255 -0.181868 0 2.99422 -0.288593 0 3.13589 -0.34694 0 3.27926 -0.402829 0 3.42158 -0.456482 0 3.56324 -0.506004 0 3.70274 -0.55229 0 3.86344 -0.521178 0 3.9827 -0.411027 0 4.05624 -0.342594 0 4.12859 -0.274343 0 4.19876 -0.207318 0 4.26722 -0.141489 0 4.33489 -0.0759191 0 4.40194 -0.0100604 0 4.44563 0.0977504 0 4.46783 0.211673 0 4.46621 0.326551 0 4.44185 0.436795 0 4.32562 0.53615 0 4.23143 0.614654 0 4.13265 0.686935 0 4.0304 0.758953 0 3.92483 0.829598 0 3.81081 0.892404 0 3.69866 0.951532 0 0.56796 -2.72865 0 0.506662 -2.75194 0 0.447142 -2.78217 0 0.378861 -2.83044 0 0.358738 -2.90033 0 0.338336 -2.97278 0 0.318113 -3.0464 0 0.300231 -3.11635 0 0.281962 -3.19196 0 0.264663 -3.26689 0 0.246951 -3.34726 0 0.229149 -3.4346 0 0.213968 -3.51738 0 0.203337 -3.57881 0 0.19654 -3.62771 0 0.234724 -3.69921 0 0.273631 -3.75356 0 0.380831 -3.80113 0 0.484975 -3.84401 0 0.5768 -3.87996 0 0.643746 -3.9049 0 0.736392 -3.93429 0 0.859175 -3.96842 0 0.964409 -3.93583 0 1.06242 -3.88823 0 1.18466 -3.77576 0 1.30084 -3.66753 0 1.38801 -3.53209 0 1.43701 -3.37727 0 1.38853 -3.2276 0 1.33671 -3.08853 0 1.2796 -2.95104 0 1.21175 -2.8162 0 1.10213 -2.75502 0 0.999825 -2.72087 0 0.933683 -2.72771 0 0.858057 -2.72745 0 0.763123 -2.72716 0 0.669894 -2.72706 0 6.13761 0.577677 0 6.1097 0.495083 0 6.09183 0.408959 0 6.12012 0.329807 0 6.15035 0.249564 0 6.18118 0.168785 0 6.21254 0.0875304 0 6.24396 0.00745772 0 6.27537 -0.070651 0 6.30692 -0.147459 0 6.33912 -0.225077 0 6.37236 -0.301671 0 6.46116 -0.364362 0 6.55757 -0.413859 0 6.66062 -0.448953 0 6.76729 -0.46967 0 6.87822 -0.474692 0 7.03468 -0.448864 0 7.18573 -0.38812 0 7.25663 -0.345785 0 7.32391 -0.295899 0 7.38163 -0.158873 0 7.43584 -0.0195478 0 7.48992 0.120657 0 7.54334 0.260646 0 7.59688 0.402351 0 7.58103 0.507763 0 7.53707 0.576295 0 7.44746 0.712339 0 7.35658 0.847123 0 7.26574 0.980206 0 7.12119 1.05355 0 6.96843 1.09312 0 6.81507 1.09948 0 6.67399 0.994468 0 6.60372 0.941705 0 6.53542 0.888988 0 6.40045 0.783591 0 6.26766 0.679727 0 1.9598 6.73403 0 2.03904 6.60159 0 2.15305 6.519 0 2.27698 6.45611 0 2.38978 6.46243 0 2.50053 6.46871 0 2.61114 6.47349 0 2.72301 6.47773 0 2.83564 6.48169 0 2.94661 6.48566 0 3.05704 6.48973 0 3.16881 6.49333 0 3.28164 6.49625 0 3.39595 6.49904 0 3.51132 6.60379 0 3.55874 6.72635 0 3.60622 6.84829 0 3.66543 7.00145 0 3.72475 7.15582 0 3.72914 7.2615 0 3.72089 7.3677 0 3.69936 7.47314 0 3.66537 7.57487 0 3.62046 7.67175 0 3.56607 7.76427 0 3.5029 7.85136 0 3.43022 7.9331 0 3.31817 8.02882 0 3.19231 8.10577 0 3.05839 8.16192 0 2.91866 8.19855 0 2.77368 8.21378 0 2.62636 8.20596 0 2.45954 8.17044 0 2.30184 8.10512 0 2.16095 8.01577 0 2.04124 7.90617 0 1.94157 7.77659 0 1.86163 7.63118 0 1.80662 7.47558 0 1.7792 7.31404 0 1.77912 7.15034 0 1.80811 6.98991 0 1.88388 6.86162 0 2.00232 5.3532 0 1.92264 5.48873 0 1.8031 5.59155 0 1.66903 5.66506 0 1.56341 5.65927 0 1.46091 5.65162 0 1.35902 5.64245 0 1.25838 5.6319 0 1.15554 5.61956 0 1.05174 5.60524 0 0.949959 5.5891 0 0.849261 5.57097 0 0.752206 5.55005 0 0.652354 5.4641 0 0.56806 5.35957 0 0.531056 5.24727 0 0.494652 5.13408 0 0.444836 4.97859 0 0.459821 4.82256 0 0.532798 4.74151 0 0.607907 4.66126 0 0.686469 4.58085 0 0.767049 4.50156 0 0.848433 4.42308 0 0.927156 4.34837 0 1.00351 4.27761 0 1.0816 4.20714 0 1.16796 4.13178 0 1.25832 4.05416 0 1.42307 4.05654 0 1.50842 4.10291 0 1.59434 4.14669 0 1.73342 4.21441 0 1.82311 4.25471 0 1.90698 4.28917 0 2.01656 4.33328 0 2.13391 4.44746 0 2.20309 4.58863 0 2.27073 4.74179 0 2.26534 4.83124 0 2.2517 4.92057 0 2.18376 5.03982 0 2.11616 5.1567 0 2.06108 5.25324 0 -0.4558 -0.82625 0 -0.622956 -0.809995 0 -0.771579 -0.796251 0 -0.91662 -0.783263 0 -1.04381 -0.820493 0 -1.09458 -0.897174 0 -1.14097 -0.97426 0 -1.18628 -1.05158 0 -1.23409 -1.13191 0 -1.27972 -1.21243 0 -1.32109 -1.29279 0 -1.36445 -1.37307 0 -1.4093 -1.45516 0 -1.45111 -1.54008 0 -1.48812 -1.6254 0 -1.52489 -1.71123 0 -1.49095 -1.83245 0 -1.3841 -1.9407 0 -1.27427 -2.04725 0 -1.16439 -2.15045 0 -1.0552 -2.25017 0 -0.942348 -2.35049 0 -0.823079 -2.45372 0 -0.69865 -2.55605 0 -0.602633 -2.53496 0 -0.506284 -2.51231 0 -0.411248 -2.4899 0 -0.318649 -2.46802 0 -0.231041 -2.44642 0 -0.150564 -2.4265 0 -0.0764479 -2.40837 0 -0.00755027 -2.39154 0 0.0822311 -2.36717 0 0.115759 -2.24078 0 0.154716 -2.10042 0 0.191118 -1.97106 0 0.223352 -1.85436 0 0.252369 -1.74207 0 0.230145 -1.6002 0 0.159954 -1.48466 0 0.0960228 -1.37694 0 0.0327525 -1.27221 0 -0.0213094 -1.17969 0 -0.0763217 -1.07305 0 -0.127165 -0.973208 0 -0.229031 -0.895815 0 -0.33878 -0.830393 0 4.5729 -3.95746 0 4.46625 -3.90199 0 4.32429 -3.908 0 4.18731 -3.93453 0 4.05728 -3.98418 0 4.01327 -4.05677 0 3.96959 -4.13 0 3.92458 -4.20453 0 3.87922 -4.2792 0 3.83271 -4.35446 0 3.78493 -4.42906 0 3.73561 -4.50173 0 3.68453 -4.57535 0 3.63285 -4.64862 0 3.5811 -4.72102 0 3.52912 -4.79382 0 3.51627 -4.91883 0 3.58157 -5.01955 0 3.64819 -5.11841 0 3.71648 -5.2187 0 3.78733 -5.32164 0 3.85951 -5.42494 0 3.9335 -5.52582 0 4.03289 -5.56102 0 4.13645 -5.58339 0 4.24282 -5.59367 0 4.34898 -5.59121 0 4.45466 -5.57683 0 4.55804 -5.54922 0 4.65167 -5.51258 0 4.74048 -5.466 0 4.82286 -5.4093 0 4.8965 -5.34309 0 4.96071 -5.26869 0 5.01618 -5.18726 0 5.08559 -5.04852 0 5.12927 -4.89957 0 5.14519 -4.74273 0 5.13327 -4.58308 0 5.09281 -4.42889 0 5.02555 -4.28533 0 4.93512 -4.15566 0 4.8143 -4.08848 0 4.69401 -4.02308 0 -2.94113 5.77422 0 -2.81219 5.71391 0 -2.67528 5.67435 0 -2.5353 5.65592 0 -2.4538 5.71057 0 -2.37298 5.7648 0 -2.2911 5.81951 0 -2.20798 5.87422 0 -2.12412 5.92827 0 -2.03956 5.98104 0 -1.95369 6.0326 0 -1.86406 6.08482 0 -1.77402 6.13608 0 -1.6845 6.18618 0 -1.62175 6.28282 0 -1.57332 6.38866 0 -1.57617 6.52971 0 -1.57785 6.62043 0 -1.58028 6.70828 0 -1.61084 6.80111 0 -1.65197 6.88836 0 -1.7048 6.97054 0 -1.76793 7.04469 0 -1.83978 7.11197 0 -1.91977 7.16936 0 -2.00311 7.21747 0 -2.09121 7.25469 0 -2.18289 7.28273 0 -2.27711 7.30137 0 -2.37234 7.30874 0 -2.46761 7.30785 0 -2.56318 7.29425 0 -2.65711 7.27045 0 -2.7475 7.23378 0 -2.83505 7.18947 0 -2.91577 7.13486 0 -2.99079 7.07277 0 -3.05832 7.00093 0 -3.11903 6.9235 0 -