<VTKFile type="PolyData" version="0.1" byte_order="LittleEndian">
  <PolyData>
    <Piece NumberOfPoints="3921" NumberOfPolys="87">
      <CellData>
        <DataArray type="Float64" Name="area" format="ascii">
1.71428 2.04263 2.89679 1.78438 2.55261 2.96027 2.66559 2.93986 2.34993 2.45594 1.76809 2.5339 1.66589 1.79394 1.247 1.88852 1.83482 1.43503 1.40724 2.21553 1.65809 1.74104 1.14863 1.69841 2.77252 2.10445 2.20714 1.99018 2.04093 1.99317 1.87981 1.85475 2.28687 2.12003 1.93201 2.03971 1.50564 1.67365 1.95693 2.71301 1.35668 3.03303 2.02791 2.75293 2.96488 1.16005 2.11187 2.78973 2.56436 2.80225 2.67836 2.5851 2.37698 2.4753 2.3036 2.69746 2.27294 2.32607 2.16122 2.37042 1.95065 1.87579 2.06116 1.77942 2.13284 1.8588 1.72506 1.62907 1.74595 1.8937 1.64731 1.72912 1.86784 1.88774 1.74907 1.46129 1.94373 1.95881 1.70256 1.63221 1.53175 1.43568 1.39618 1.35254 1.51549 1.34711 1.404 
        </DataArray>
        <DataArray type="Float64" Name="u" NumberOfComponents="1" format="ascii">
0.0126975 4.70134e-06 0.00165498 1.68692e-06 0.00113738 5.40246e-05 9.58697e-07 0.00137028 2.54969e-06 0.000242745 3.63363e-05 0.000223896 0.000464758 0.000355574 0.00401052 2.0418e-07 7.1611e-06 4.29732e-08 0.000270745 0.000720484 2.07513e-06 0.00270272 6.14154e-05 0.000346344 0.00027241 0.00169374 0.000174843 1.59518e-05 2.97263e-05 5.90968e-06 0.000143051 0.0025861 0.000476025 4.54068e-08 4.828e-06 1.06843e-05 0.000248018 2.90044e-07 7.55505e-05 6.45572e-05 1.08366e-06 0.00521484 0.00127706 0.00199737 5.80414e-07 0.000554505 1.24568e-05 0.00118649 0.00395667 0.000347226 0.00139325 5.51314e-06 4.89749e-05 7.39423e-05 8.72163e-05 0.000426375 3.05899e-05 1.34998e-07 0.000301401 2.9785e-08 1.43789e-05 2.76107e-05 6.21071e-08 1.11656e-06 0.000977013 0.000130756 6.06702e-06 0.000999866 0.000243642 0.00568907 1.55724e-05 8.29158e-06 1.16006e-05 0.000132832 1.64309e-06 0.000336793 0.000875183 0.000118028 0.000755288 6.11772e-07 0.00673397 0.000509475 2.30667e-07 1.54779e-07 0.000255309 0.00533544 4.92084e-05 
        </DataArray>
        <DataArray type="Float64" Name="D" NumberOfComponents="1" format="ascii">
32 32 32 32 32 32 32 32 32 32 32 32 32 32 32 32 32 32 32 32 32 32 32 32 32 32 32 32 32 32 32 32 32 32 32 32 32 32 32 32 32 32 32 32 32 32 32 32 32 32 32 32 32 32 32 32 32 32 32 32 32 32 32 32 32 32 32 32 32 32 32 32 32 32 32 32 32 32 32 32 32 32 32 32 32 32 32 
        </DataArray>
        <DataArray type="Float64" Name="k" NumberOfComponents="1" format="ascii">
1 1 1 1 1 1 1 1 1 1 1 1 1 1 1 1 1 1 1 1 1 1 1 1 1 1 1 1 1 1 1 1 1 1 1 1 1 1 1 1 1 1 1 1 1 1 1 1 1 1 1 1 1 1 1 1 1 1 1 1 1 1 1 1 1 1 1 1 1 1 1 1 1 1 1 1 1 1 1 1 1 1 1 1 1 1 1 
        </DataArray>
        <DataArray type="Float64" Name="p" NumberOfComponents="1" format="ascii">
1 0 0 0 0 0 0 0 0 0 0 0 0 0 0 0 0 0 0 0 0 0 0 0 0 0 0 0 0 0 0 0 0 0 0 0 0 0 0 0 0 0 0 0 0 0 0 0 0 0 0 0 0 0 0 0 0 0 0 0 0 0 0 0 0 0 0 0 0 0 0 0 0 0 0 0 0 0 0 0 0 0 0 0 0 0 0 
        </DataArray>
        <DataArray type="Float64" Name="threshold" NumberOfComponents="1" format="ascii">
0.001 0.001 0.001 0.001 0.001 0.001 0.001 0.001 0.001 0.001 0.001 0.001 0.001 0.001 0.001 0.001 0.001 0.001 0.001 0.001 0.001 0.001 0.001 0.001 0.001 0.001 0.001 0.001 0.001 0.001 0.001 0.001 0.001 0.001 0.001 0.001 0.001 0.001 0.001 0.001 0.001 0.001 0.001 0.001 0.001 0.001 0.001 0.001 0.001 0.001 0.001 0.001 0.001 0.001 0.001 0.001 0.001 0.001 0.001 0.001 0.001 0.001 0.001 0.001 0.001 0.001 0.001 0.001 0.001 0.001 0.001 0.001 0.001 0.001 0.001 0.001 0.001 0.001 0.001 0.001 0.001 0.001 0.001 0.001 0.001 0.001 0.001 
        </DataArray>
        <DataArray type="Int8" Name="cell_type" format="ascii">
0 1 1 1 1 1 1 1 1 1 1 1 1 1 1 1 1 1 1 1 1 1 1 1 1 1 1 1 1 1 1 1 1 1 1 1 1 1 1 1 1 0 1 1 1 1 1 1 1 1 1 1 1 1 1 1 1 1 1 1 1 1 1 1 1 1 1 1 1 0 1 1 1 1 1 1 1 1 1 1 0 1 1 1 1 0 1 
        </DataArray>
        <DataArray type="Float64" Name="perimeter" format="ascii">
4.79939 5.26279 6.2598 4.91428 5.85546 6.31395 5.9962 6.21845 5.59444 5.76316 4.87162 5.87136 4.70268 4.88569 4.15824 4.99043 5.15414 4.33246 4.37603 5.48119 4.6762 4.83247 3.90534 4.74171 5.99297 5.30522 5.49148 5.11439 5.17614 5.25947 5.08458 5.0627 5.5058 5.32234 5.02018 5.18563 4.5283 4.72583 5.0519 6.08818 4.27138 6.37137 5.42243 6.14562 6.33476 3.96752 5.31527 6.08481 5.9461 6.00059 6.01284 5.84691 5.62789 5.6855 5.58622 5.92672 5.61349 5.52438 5.4313 5.55373 5.26247 5.02 5.27534 4.87989 5.36587 4.97262 4.7567 4.72181 4.80787 5.10047 4.71992 4.81652 5.01845 4.9857 4.86454 4.47553 5.13255 5.02985 4.82641 4.60028 4.61298 4.38117 4.25259 4.17677 4.59187 4.26703 4.4091 
        </DataArray>
        <DataArray type="Float64" Name="neighbors" format="ascii">
4 5 7 6 5 6 8 5 5 6 5 7 5 4 4 5 5 3 5 6 4 4 5 4 3 6 6 3 3 5 6 5 3 3 5 3 4 4 2 8 6 5 6 6 7 4 7 6 5 3 6 4 5 3 6 5 6 3 5 2 5 6 4 3 5 5 4 6 3 5 5 6 4 3 5 5 5 4 5 2 4 5 4 4 6 5 6 
        </DataArray>
      </CellData>
      <Points>
        <DataArray type="Float64" Name="Points" NumberOfComponents="3" format="ascii">
2.50369 3.12545 0 2.39727 3.07154 0 2.27757 3.01016 0 2.18505 2.90997 0 2.17571 2.81639 0 2.16518 2.72313 0 2.15579 2.63495 0 2.1463 2.55271 0 2.13699 2.46634 0 2.12754 2.37993 0 2.11783 2.29282 0 2.10575 2.20525 0 2.09031 2.11642 0 2.07421 2.02816 0 2.06157 1.93591 0 2.12463 1.82788 0 2.20357 1.73307 0 2.27349 1.67024 0 2.39256 1.66723 0 2.48433 1.66474 0 2.57684 1.66228 0 2.67243 1.6601 0 2.76782 1.65866 0 2.86481 1.66106 0 2.96101 1.6626 0 3.0568 1.66394 0 3.15575 1.66695 0 3.23208 1.72266 0 3.29801 1.79065 0 3.35101 1.86516 0 3.39355 1.94545 0 3.42828 2.03426 0 3.45336 2.13471 0 3.46632 2.24527 0 3.4625 2.35772 0 3.44445 2.46849 0 3.3947 2.55965 0 3.34216 2.65305 0 3.28477 2.75146 0 3.21918 2.8582 0 3.16647 2.94146 0 3.11195 3.02218 0 3.00587 3.08495 0 2.88902 3.12932 0 2.74481 3.16301 0 2.60368 3.1747 0 -1.93442 -4.01896 0 -1.85501 -3.86303 0 -1.77762 -3.71158 0 -1.76432 -3.56503 0 -1.81454 -3.48815 0 -1.86978 -3.41188 0 -1.92693 -3.33734 0 -1.98586 -3.26392 0 -2.04676 -3.19137 0 -2.1116 -3.11792 0 -2.17992 -3.04404 0 -2.2496 -2.97031 0 -2.32034 -2.89682 0 -2.39233 -2.82388 0 -2.46646 -2.75319 0 -2.54066 -2.68684 0 -2.65045 -2.68677 0 -2.72919 -2.74455 0 -2.80635 -2.80245 0 -2.88399 -2.86407 0 -2.96152 -2.9264 0 -3.03678 -2.98912 0 -3.10941 -3.05112 0 -3.18298 -3.11372 0 -3.25397 -3.17725 0 -3.32321 -3.24438 0 -3.38947 -3.31566 0 -3.4266 -3.43309 0 -3.44343 -3.5518 0 -3.41138 -3.66918 0 -3.37608 -3.7779 0 -3.33715 -3.88773 0 -3.296 -3.99703 0 -3.22942 -4.14481 0 -3.1567 -4.29406 0 -3.06235 -4.36177 0 -2.95273 -4.416 0 -2.86365 -4.41537 0 -2.77303 -4.41275 0 -2.68228 -4.40982 0 -2.58777 -4.40551 0 -2.48903 -4.39963 0 -2.38857 -4.39309 0 -2.25111 -4.38297 0 -2.11189 -4.36876 0 -2.05169 -4.25194 0 -1.99346 -4.13609 0 1.23029 3.41634 0 1.28197 3.54245 0 1.28918 3.64778 0 1.29667 3.7535 0 1.30581 3.84577 0 1.31654 3.93753 0 1.24654 4.09088 0 1.14987 4.16203 0 1.0712 4.22407 0 1.00137 4.283 0 0.933906 4.34326 0 0.866406 4.40532 0 0.79661 4.47197 0 0.728358 4.5403 0 0.659612 4.61114 0 0.590552 4.68542 0 0.521816 4.76172 0 0.444852 4.83784 0 0.319333 4.86498 0 0.201172 4.82511 0 0.0504649 4.77535 0 -0.0882689 4.73333 0 -0.227972 4.69468 0 -0.36433 4.65524 0 -0.494672 4.61708 0 -0.561632 4.51812 0 -0.614582 4.41583 0 -0.654864 4.30784 0 -0.660029 4.18891 0 -0.66818 4.06636 0 -0.677676 3.94186 0 -0.663218 3.76652 0 -0.615236 3.59917 0 -0.535191 3.5016 0 -0.46076 3.40639 0 -0.389186 3.31143 0 -0.315077 3.20992 0 -0.23858 3.0998 0 -0.166005 2.98786 0 -0.0952892 2.8775 0 0.0461588 2.89952 0 0.191115 2.91968 0 0.335238 2.93527 0 0.4813 2.94661 0 0.631851 2.95211 0 0.729053 2.95483 0 0.830824 3.00158 0 0.924077 3.06235 0 1.00188 3.13912 0 1.07769 3.21277 0 1.15553 3.28786 0 -0.532228 -4.94046 0 -0.580431 -4.85433 0 -0.664332 -4.80062 0 -0.756365 -4.76232 0 -0.841392 -4.77366 0 -0.925441 -4.78536 0 -1.0118 -4.79868 0 -1.09765 -4.81179 0 -1.18128 -4.82448 0 -1.26503 -4.8371 0 -1.35145 -4.84899 0 -1.43363 -4.85984 0 -1.51558 -4.87036 0 -1.60481 -4.88202 0 -1.69125 -4.89557 0 -1.7791 -4.96682 0 -1.85624 -5.0513 0 -1.9288 -5.21691 0 -1.96609 -5.30186 0 -2.00136 -5.37823 0 -2.01209 -5.50108 0 -2.00922 -5.60762 0 -1.93831 -5.75511 0 -1.86711 -5.90701 0 -1.7965 -6.05619 0 -1.66383 -6.16801 0 -1.53193 -6.182 0 -1.40249 -6.19443 0 -1.31682 -6.20161 0 -1.22691 -6.20759 0 -1.13949 -6.21237 0 -1.05451 -6.2168 0 -0.96972 -6.22218 0 -0.885356 -6.17456 0 -0.800937 -6.11262 0 -0.764817 -6.0299 0 -0.729007 -5.94797 0 -0.692999 -5.86593 0 -0.65949 -5.78901 0 -0.626828 -5.71432 0 -0.588194 -5.63759 0 -0.546809 -5.55604 0 -0.50347 -5.4712 0 -0.458044 -5.38766 0 -0.415081 -5.30565 0 -0.413809 -5.17052 0 -0.452698 -5.09365 0 -0.492327 -5.01634 0 5.5527 2.29395 0 5.4061 2.27063 0 5.32742 2.22002 0 5.25357 2.1601 0 5.1861 2.09374 0 5.12536 2.02091 0 5.1294 1.92425 0 5.13756 1.82306 0 5.1483 1.71813 0 5.1608 1.61789 0 5.17494 1.51794 0 5.18945 1.41232 0 5.20681 1.30339 0 5.22665 1.19763 0 5.2467 1.09566 0 5.26737 0.992837 0 5.28816 0.892297 0 5.30912 0.795924 0 5.42157 0.700677 0 5.53661 0.673877 0 5.65305 0.646519 0 5.77255 0.620002 0 5.89101 0.58973 0 6.02166 0.593736 0 6.14828 0.614107 0 6.26374 0.701434 0 6.37819 0.787978 0 6.49107 0.873684 0 6.60969 0.962334 0 6.72502 1.04715 0 6.84311 1.13546 0 6.89496 1.2584 0 6.92621 1.38652 0 6.93481 1.51518 0 6.92452 1.64208 0 6.88116 1.72367 0 6.83879 1.80445 0 6.78383 1.91076 0 6.72692 2.01768 0 6.66564 2.12487 0 6.60521 2.22919 0 6.54401 2.33205 0 6.4192 2.40989 0 6.2878 2.39607 0 6.15958 2.38095 0 6.0377 2.36603 0 5.91702 2.34954 0 5.79258 2.33106 0 5.67155 2.31257 0 -2.68696 5.25633 0 -2.77612 5.30004 0 -2.93716 5.34857 0 -3.10699 5.36793 0 -3.22683 5.30072 0 -3.3485 5.23073 0 -3.46843 5.15998 0 -3.58843 5.09212 0 -3.70987 5.02805 0 -3.83258 4.97037 0 -3.89702 4.91017 0 -3.95355 4.84652 0 -3.99149 4.71102 0 -4.03159 4.57708 0 -4.07251 4.44513 0 -4.11971 4.31429 0 -4.16799 4.19181 0 -4.16255 4.06571 0 -4.09004 3.99421 0 -3.98823 3.88805 0 -3.89421 3.77491 0 -3.79882 3.65812 0 -3.70888 3.53693 0 -3.62943 3.41869 0 -3.55413 3.302 0 -3.45463 3.25952 0 -3.35396 3.23156 0 -3.24723 3.2185 0 -3.1359 3.21777 0 -2.97899 3.28348 0 -2.82861 3.34695 0 -2.68215 3.40769 0 -2.53698 3.46749 0 -2.45078 3.60623 0 -2.42774 3.75231 0 -2.40078 3.89874 0 -2.37055 4.04418 0 -2.33903 4.18677 0 -2.30672 4.32345 0 -2.27134 4.45615 0 -2.23178 4.58919 0 -2.26335 4.74381 0 -2.34686 4.85052 0 -2.43253 4.96272 0 -2.51669 5.08047 0 -2.60194 5.2001 0 -5.32536 -1.5315 0 -5.45699 -1.57685 0 -5.59759 -1.61874 0 -5.71153 -1.69951 0 -5.74194 -1.77818 0 -5.77178 -1.85919 0 -5.80244 -1.93697 0 -5.83375 -2.00946 0 -5.86578 -2.08043 0 -5.89819 -2.15144 0 -5.93009 -2.22111 0 -5.96335 -2.29278 0 -5.99811 -2.36504 0 -6.03375 -2.43677 0 -6.07294 -2.50609 0 -6.05983 -2.60849 0 -5.9997 -2.69204 0 -5.9122 -2.81891 0 -5.8273 -2.94827 0 -5.74542 -3.08153 0 -5.67283 -3.21644 0 -5.59172 -3.2835 0 -5.50721 -3.34432 0 -5.41117 -3.37134 0 -5.31687 -3.39872 0 -5.22125 -3.42572 0 -5.09021 -3.42202 0 -4.96408 -3.3251 0 -4.83469 -3.2279 0 -4.75171 -3.16754 0 -4.66391 -3.10641 0 -4.57317 -3.04689 0 -4.48804 -2.99191 0 -4.40364 -2.83572 0 -4.38005 -2.68303 0 -4.34551 -2.52977 0 -4.30451 -2.37415 0 -4.27435 -2.26267 0 -4.24128 -2.15189 0 -4.24301 -2.02379 0 -4.25899 -1.89212 0 -4.3239 -1.78973 0 -4.38588 -1.68561 0 -4.44586 -1.58221 0 -4.50342 -1.47697 0 -4.61015 -1.45058 0 -4.71944 -1.42354 0 -4.83099 -1.39474 0 -4.9927 -1.39495 0 -5.15537 -1.4696 0 5.62842 5.27034 0 5.58509 5.35325 0 5.48662 5.48737 0 5.3664 5.60243 0 5.23282 5.69937 0 5.091 5.78167 0 4.97322 5.77164 0 4.86331 5.76315 0 4.75632 5.75484 0 4.64785 5.74672 0 4.53581 5.73945 0 4.42123 5.73213 0 4.31165 5.72573 0 4.20326 5.72176 0 4.09041 5.71952 0 3.98385 5.63672 0 3.89081 5.54022 0 3.84932 5.42082 0 3.79827 5.27757 0 3.74684 5.13501 0 3.69221 4.99556 0 3.69578 4.88075 0 3.71193 4.76767 0 3.73951 4.65438 0 3.77716 4.54144 0 3.82952 4.43093 0 3.90012 4.32746 0 4.05158 4.25534 0 4.13073 4.21954 0 4.21275 4.18248 0 4.29352 4.14564 0 4.3698 4.11094 0 4.52079 4.04212 0 4.67419 3.96389 0 4.83349 3.87542 0 4.98263 3.89358 0 5.13024 3.9335 0 5.25852 4.01183 0 5.38379 4.09193 0 5.49353 4.22834 0 5.57337 4.38264 0 5.5929 4.48339 0 5.6118 4.58279 0 5.63116 4.68562 0 5.65354 4.78793 0 5.67642 4.88691 0 5.69914 4.98724 0 5.68641 5.08615 0 5.66185 5.18243 0 2.02996 -6.72531 0 2.10724 -6.62262 0 2.17035 -6.5089 0 2.21288 -6.38723 0 2.23351 -6.25646 0 2.19683 -6.15223 0 2.16017 -6.04809 0 2.12498 -5.94317 0 2.0924 -5.84129 0 2.06158 -5.74378 0 2.03121 -5.6475 0 2.00051 -5.5508 0 1.96873 -5.45391 0 1.93574 -5.35727 0 1.89962 -5.25952 0 1.73769 -5.23669 0 1.57907 -5.21176 0 1.48902 -5.19725 0 1.39835 -5.18262 0 1.28228 -5.16382 0 1.12327 -5.18506 0 0.968566 -5.24392 0 0.858927 -5.32901 0 0.753287 -5.4133 0 0.681648 -5.5508 0 0.680677 -5.64873 0 0.680639 -5.74118 0 0.680299 -5.83028 0 0.67733 -5.92082 0 0.672332 -6.03347 0 0.666239 -6.14099 0 0.658444 -6.24998 0 0.650546 -6.35963 0 0.679815 -6.4903 0 0.729756 -6.61963 0 0.811781 -6.70912 0 0.892795 -6.80264 0 0.970807 -6.89403 0 1.05074 -6.98772 0 1.18509 -7.02417 0 1.31914 -7.0383 0 1.45024 -7.02786 0 1.57647 -6.99888 0 1.69686 -6.9585 0 1.81249 -6.9055 0 1.93001 -6.82425 0 3.65598 -3.29739 0 3.74375 -3.33628 0 3.88941 -3.33891 0 4.0345 -3.31503 0 4.17775 -3.26912 0 4.23449 -3.17958 0 4.28892 -3.09201 0 4.344 -3.00255 0 4.39992 -2.91155 0 4.45696 -2.81905 0 4.5158 -2.72607 0 4.57549 -2.63323 0 4.63556 -2.5404 0 4.69402 -2.45073 0 4.74866 -2.35786 0 4.74563 -2.20511 0 4.69584 -2.0711 0 4.64692 -1.93096 0 4.57197 -1.84475 0 4.48146 -1.76841 0 4.38061 -1.70547 0 4.27122 -1.66605 0 4.15853 -1.62429 0 4.04856 -1.57783 0 3.93538 -1.55964 0 3.82296 -1.56116 0 3.67845 -1.64611 0 3.52914 -1.73251 0 3.43822 -1.78435 0 3.34798 -1.83536 0 3.25491 -1.87925 0 3.1648 -1.91994 0 3.07604 -1.95885 0 2.98481 -1.99711 0 2.91028 -2.05979 0 2.84272 -2.13721 0 2.85507 -2.28935 0 2.86504 -2.40106 0 2.8774 -2.51599 0 2.89085 -2.62942 0 2.90642 -2.74156 0 2.92232 -2.84704 0 2.94012 -2.95295 0 3.0644 -3.06091 0 3.23444 -3.12328 0 3.40316 -3.18953 0 3.57243 -3.25995 0 -4.51119 2.18749 0 -4.53123 2.05335 0 -4.50203 1.91859 0 -4.45388 1.79732 0 -4.38803 1.74156 0 -4.3172 1.68101 0 -4.24699 1.62029 0 -4.17792 1.56247 0 -4.10832 1.50665 0 -4.03997 1.45454 0 -3.97095 1.40482 0 -3.89995 1.35599 0 -3.82975 1.30914 0 -3.7612 1.26439 0 -3.69368 1.22075 0 -3.5737 1.23062 0 -3.49225 1.28523 0 -3.39045 1.35748 0 -3.29153 1.43054 0 -3.19695 1.50334 0 -3.10744 1.5764 0 -3.04637 1.7036 0 -3.00853 1.83865 0 -3.04178 1.96017 0 -3.08868 2.12659 0 -3.13819 2.28202 0 -3.19048 2.43635 0 -3.24513 2.59269 0 -3.31145 2.74499 0 -3.39179 2.79327 0 -3.47786 2.83026 0 -3.56818 2.85365 0 -3.6614 2.86037 0 -3.75596 2.8537 0 -3.844 2.81429 0 -3.9632 2.75797 0 -4.08652 2.69704 0 -4.20786 2.63558 0 -4.32831 2.57361 0 -4.45195 2.50944 0 -4.48441 2.34866 0 2.29556 -1.7039 0 2.21804 -1.64936 0 2.11677 -1.62379 0 2.01146 -1.61259 0 1.85121 -1.6456 0 1.75422 -1.66435 0 1.65841 -1.68417 0 1.62841 -1.77471 0 1.59132 -1.8795 0 1.55272 -1.97468 0 1.51521 -2.064 0 1.47 -2.16768 0 1.42453 -2.2675 0 1.38407 -2.35152 0 1.34283 -2.4334 0 1.29777 -2.52084 0 1.2505 -2.60635 0 1.19947 -2.69354 0 1.19276 -2.77946 0 1.19349 -2.86202 0 1.23154 -2.93258 0 1.27083 -3.0056 0 1.30133 -3.08082 0 1.33014 -3.15454 0 1.35908 -3.23201 0 1.38831 -3.31823 0 1.41799 -3.40446 0 1.49475 -3.46985 0 1.58045 -3.52594 0 1.68056 -3.54344 0 1.77716 -3.56122 0 1.86999 -3.57999 0 1.96343 -3.60147 0 2.05353 -3.62135 0 2.16625 -3.59534 0 2.27444 -3.55552 0 2.34874 -3.49194 0 2.42379 -3.42835 0 2.51794 -3.35009 0 2.61072 -3.27565 0 2.70226 -3.20533 0 2.79185 -3.13852 0 2.88139 -3.06891 0 2.92893 -2.95633 0 2.91351 -2.85519 0 2.89839 -2.75582 0 2.88123 -2.63273 0 2.86604 -2.5045 0 2.85233 -2.37508 0 2.84196 -2.25141 0 2.83071 -2.13127 0 2.76373 -2.04889 0 2.68942 -1.97281 0 2.60854 -1.91989 0 2.53043 -1.86836 0 2.45132 -1.81557 0 2.37301 -1.75935 0 0.188154 6.0179 0 0.116501 6.08339 0 0.0120251 6.11509 0 -0.0925091 6.13037 0 -0.168803 6.09472 0 -0.241568 6.05655 0 -0.314298 6.01756 0 -0.388909 5.97879 0 -0.465738 5.94403 0 -0.544502 5.91116 0 -0.62366 5.87903 0 -0.700423 5.84945 0 -0.774285 5.82052 0 -0.847178 5.79158 0 -0.898445 5.6961 0 -0.937403 5.59224 0 -0.940149 5.50186 0 -0.943573 5.36884 0 -0.946862 5.24128 0 -0.948444 5.11072 0 -0.905041 5.01572 0 -0.852867 4.92289 0 -0.782876 4.83247 0 -0.699367 4.75014 0 -0.602263 4.68124 0 -0.498608 4.62863 0 -0.421367 4.64889 0 -0.343624 4.67165 0 -0.186268 4.71697 0 -0.105569 4.73885 0 -0.0226765 4.76355 0 0.0605715 4.78917 0 0.147944 4.818 0 0.232756 4.84625 0 0.322267 4.87752 0 0.421848 4.99869 0 0.464863 5.12837 0 0.509337 5.2611 0 0.553076 5.39217 0 0.54042 5.53799 0 0.502802 5.67542 0 0.441671 5.74819 0 0.378977 5.81986 0 0.316204 5.88921 0 0.252795 5.95437 0 8.08667 2.61967 0 8.01639 2.73318 0 7.92292 2.82805 0 7.8123 2.90411 0 7.71986 2.91629 0 7.62912 2.92744 0 7.53937 2.94195 0 7.44947 2.95724 0 7.35898 2.97203 0 7.27075 2.98543 0 7.18509 2.99728 0 7.09798 3.00822 0 7.01053 3.01809 0 6.92262 3.02491 0 6.84959 2.97421 0 6.77926 2.91933 0 6.71234 2.79441 0 6.64461 2.6709 0 6.55533 2.51319 0 6.55068 2.4237 0 6.55547 2.33433 0 6.64228 2.18516 0 6.72661 2.03908 0 6.77986 1.93999 0 6.82992 1.84325 0 6.87937 1.7484 0 6.93248 1.65032 0 7.03382 1.59042 0 7.1504 1.54566 0 7.27681 1.52172 0 7.40656 1.52068 0 7.49074 1.57277 0 7.57329 1.62579 0 7.65813 1.68051 0 7.74399 1.73297 0 7.83074 1.78466 0 7.91442 1.83753 0 7.99487 1.88938 0 8.07256 1.94455 0 8.11037 2.04988 0 8.13476 2.16096 0 8.14661 2.27801 0 8.14553 2.39717 0 8.12713 2.51167 0 2.29565 4.75917 0 2.2477 4.65733 0 2.19451 4.54391 0 2.20001 4.41499 0 2.21637 4.31455 0 2.28123 4.23631 0 2.33515 4.17065 0 2.39091 4.10315 0 2.44494 4.02745 0 2.49689 3.95247 0 2.54159 3.88834 0 2.59253 3.81707 0 2.6551 3.72901 0 2.72591 3.62595 0 2.81332 3.59435 0 2.9074 3.57068 0 2.9932 3.57068 0 3.0764 3.57642 0 3.17207 3.67472 0 3.22964 3.73747 0 3.2679 3.78283 0 3.31214 3.83675 0 3.35774 3.89384 0 3.40752 3.95846 0 3.46086 4.0373 0 3.52162 4.12808 0 3.57629 4.22228 0 3.56496 4.3261 0 3.54094 4.42577 0 3.5024 4.51848 0 3.44692 4.60806 0 3.37819 4.68503 0 3.30219 4.75062 0 3.20347 4.76763 0 3.1089 4.77985 0 3.01814 4.79091 0 2.93422 4.80032 0 2.85184 4.80903 0 2.76303 4.81898 0 2.66995 4.82627 0 2.57754 4.8302 0 2.48254 4.83299 0 2.3853 4.83243 0 -1.89794 -7.45443 0 -1.83249 -7.51914 0 -1.72797 -7.59753 0 -1.61374 -7.65556 0 -1.49067 -7.69092 0 -1.4092 -7.66232 0 -1.32584 -7.63416 0 -1.23946 -7.60702 0 -1.15335 -7.58211 0 -1.06826 -7.55651 0 -0.986357 -7.5319 0 -0.902753 -7.50763 0 -0.820721 -7.48349 0 -0.740234 -7.45754 0 -0.659834 -7.42839 0 -0.583931 -7.39543 0 -0.518366 -7.2893 0 -0.495435 -7.1393 0 -0.480383 -7.03933 0 -0.465613 -6.93854 0 -0.4949 -6.82691 0 -0.536126 -6.71985 0 -0.597507 -6.63092 0 -0.657551 -6.54495 0 -0.719807 -6.45592 0 -0.788575 -6.37113 0 -0.876685 -6.29482 0 -0.966064 -6.23368 0 -1.04746 -6.22721 0 -1.12941 -6.22289 0 -1.23537 -6.21708 0 -1.3438 -6.20972 0 -1.44918 -6.20012 0 -1.55557 -6.18962 0 -1.66343 -6.17939 0 -1.78006 -6.23137 0 -1.82727 -6.30989 0 -1.87414 -6.38969 0 -1.92039 -6.46751 0 -1.96949 -6.54879 0 -2.02739 -6.64105 0 -2.08661 -6.73494 0 -2.10263 -6.83305 0 -2.10903 -6.92928 0 -2.0934 -7.08195 0 -2.04425 -7.23882 0 -2.00444 -7.31446 0 -1.95509 -7.38605 0 -4.99176 0.105949 0 -5.06663 0.00204181 0 -5.12499 -0.109338 0 -5.16561 -0.225306 0 -5.13703 -0.340726 0 -5.1101 -0.449161 0 -5.08388 -0.557529 0 -5.06019 -0.662153 0 -5.03914 -0.763412 0 -5.01984 -0.864716 0 -4.99995 -0.968722 0 -4.98047 -1.07541 0 -4.96099 -1.18231 0 -4.93873 -1.29059 0 -4.82324 -1.38659 0 -4.66101 -1.42784 0 -4.5032 -1.46543 0 -4.42884 -1.37341 0 -4.35408 -1.27766 0 -4.27814 -1.17975 0 -4.2007 -1.07881 0 -4.12265 -0.97759 0 -4.04332 -0.876463 0 -3.96219 -0.77618 0 -3.88281 -0.678984 0 -3.80374 -0.585652 0 -3.72606 -0.495413 0 -3.65243 -0.40356 0 -3.65159 -0.23021 0 -3.72762 -0.0684457 0 -3.78472 0.0485494 0 -3.84125 0.158679 0 -3.95684 0.247908 0 -4.0608 0.253812 0 -4.16983 0.257718 0 -4.28352 0.261636 0 -4.39731 0.265071 0 -4.51073 0.267483 0 -4.62159 0.267232 0 -4.72809 0.261914 0 -4.83521 0.254259 0 -4.91813 0.184631 0 -5.01812 -6.05917 0 -4.9193 -6.07289 0 -4.79149 -6.06474 0 -4.67938 -6.04642 0 -4.57321 -6.00177 0 -4.48681 -5.96129 0 -4.38758 -5.87668 0 -4.31971 -5.80063 0 -4.31165 -5.73689 0 -4.30364 -5.6658 0 -4.29685 -5.59777 0 -4.28912 -5.53305 0 -4.27995 -5.47431 0 -4.27153 -5.41121 0 -4.26133 -5.34453 0 -4.24501 -5.26968 0 -4.23094 -5.19993 0 -4.28499 -5.06802 0 -4.39117 -4.99587 0 -4.4862 -4.93591 0 -4.58768 -4.87268 0 -4.68695 -4.81066 0 -4.79551 -4.7425 0 -4.90587 -4.67361 0 -5.03999 -4.66879 0 -5.14459 -4.75202 0 -5.25214 -4.83772 0 -5.33406 -4.90312 0 -5.41294 -4.97069 0 -5.47516 -5.02973 0 -5.53028 -5.08392 0 -5.55443 -5.13648 0 -5.58162 -5.21179 0 -5.60031 -5.30077 0 -5.60608 -5.39536 0 -5.59907 -5.49024 0 -5.57348 -5.58839 0 -5.50434 -5.73172 0 -5.40495 -5.86047 0 -5.26128 -5.97586 0 -5.11064 -6.04304 0 -1.50894 -0.295842 0 -1.39664 -0.322884 0 -1.3044 -0.309211 0 -1.22027 -0.274738 0 -1.18539 -0.197763 0 -1.15086 -0.123247 0 -1.11627 -0.0511733 0 -1.0821 0.0211546 0 -1.04566 0.096455 0 -1.00669 0.175849 0 -0.968894 0.249077 0 -0.931041 0.323161 0 -0.892269 0.404715 0 -0.858448 0.482963 0 -0.86598 0.585108 0 -0.895519 0.688142 0 -0.960932 0.764469 0 -1.01877 0.837048 0 -1.07739 0.908431 0 -1.13404 0.97748 0 -1.19085 1.04502 0 -1.27662 1.032 0 -1.36583 1.01574 0 -1.45675 0.999002 0 -1.54336 0.981614 0 -1.63075 0.965151 0 -1.71839 0.948176 0 -1.8272 0.925476 0 -1.93307 0.902842 0 -2.03512 0.87973 0 -2.11369 0.812279 0 -2.17553 0.730216 0 -2.19045 0.623938 0 -2.20268 0.518011 0 -2.21102 0.409914 0 -2.21513 0.304817 0 -2.21519 0.20195 0 -2.21046 0.0989665 0 -2.19713 -0.000428504 0 -2.08928 -0.109284 0 -1.96948 -0.15377 0 -1.85155 -0.193772 0 -1.73661 -0.230456 0 -1.62289 -0.2647 0 -0.620818 3.58911 0 -0.712441 3.62418 0 -0.810367 3.64695 0 -0.886172 3.61366 0 -0.963784 3.5793 0 -1.04298 3.54429 0 -1.12473 3.50802 0 -1.20542 3.4698 0 -1.28643 3.4312 0 -1.37193 3.39049 0 -1.45826 3.34966 0 -1.5405 3.31142 0 -1.6217 3.27634 0 -1.70128 3.24023 0 -1.7808 3.20295 0 -1.85946 3.16341 0 -1.91208 3.06735 0 -1.89037 2.89404 0 -1.86722 2.71315 0 -1.84471 2.53713 0 -1.78252 2.37905 0 -1.68086 2.2376 0 -1.59904 2.19277 0 -1.5141 2.14652 0 -1.4314 2.09711 0 -1.35076 2.04819 0 -1.27171 1.99947 0 -1.19243 1.94782 0 -1.11345 1.89571 0 -1.03312 1.84396 0 -0.933813 1.88388 0 -0.834747 1.92539 0 -0.733905 1.96807 0 -0.63546 2.00992 0 -0.537155 2.05195 0 -0.440127 2.09416 0 -0.341618 2.22742 0 -0.296109 2.35637 0 -0.248358 2.48743 0 -0.199784 2.618 0 -0.151964 2.74482 0 -0.104014 2.86939 0 -0.183707 2.99702 0 -0.264765 3.12029 0 -0.353386 3.24573 0 -0.443636 3.36731 0 -0.531041 3.48029 0 -6.43953 4.04512 0 -6.4637 3.92865 0 -6.47007 3.80691 0 -6.45448 3.68285 0 -6.3929 3.61634 0 -6.33316 3.55093 0 -6.27282 3.48372 0 -6.21378 3.41789 0 -6.15385 3.35153 0 -6.0951 3.28755 0 -6.03586 3.22515 0 -5.97636 3.16368 0 -5.91651 3.1017 0 -5.85569 3.03944 0 -5.7238 3.01868 0 -5.62109 3.04674 0 -5.5179 3.07609 0 -5.39035 3.11413 0 -5.26654 3.15587 0 -5.19999 3.23487 0 -5.14325 3.32308 0 -5.11752 3.40977 0 -5.08946 3.49264 0 -5.03262 3.65774 0 -4.97281 3.82446 0 -4.99048 3.9831 0 -5.08275 4.07634 0 -5.17403 4.17368 0 -5.23811 4.24481 0 -5.30044 4.31563 0 -5.36233 4.38601 0 -5.42363 4.45554 0 -5.48566 4.52286 0 -5.58997 4.5541 0 -5.69824 4.56831 0 -5.80946 4.56479 0 -5.91872 4.542 0 -6.02107 4.50386 0 -6.11997 4.453 0 -6.21059 4.38736 0 -6.28538 4.31189 0 -6.34889 4.23191 0 -6.40213 4.14336 0 3.61305 1.01477 0 3.50847 1.00252 0 3.40723 0.975942 0 3.34083 0.910956 0 3.27559 0.843957 0 3.21193 0.775969 0 3.14891 0.705191 0 3.08755 0.632412 0 3.02973 0.558881 0 2.97496 0.483871 0 2.92112 0.405097 0 2.8669 0.321198 0 2.81396 0.234703 0 2.81272 0.0984516 0 2.83714 -0.0356017 0 2.89052 -0.158418 0 2.97569 -0.267234 0 3.12428 -0.327529 0 3.27255 -0.384406 0 3.41548 -0.434919 0 3.55321 -0.480995 0 3.69049 -0.523823 0 3.84657 -0.49153 0 3.96332 -0.383701 0 4.03592 -0.316936 0 4.10735 -0.251214 0 4.17757 -0.186462 0 4.24862 -0.121454 0 4.31952 -0.0570434 0 4.39071 0.00912846 0 4.43645 0.120574 0 4.46032 0.23677 0 4.46113 0.351827 0 4.44291 0.46432 0 4.32438 0.559323 0 4.2269 0.63587 0 4.12835 0.707932 0 4.02788 0.779536 0 3.92214 0.845086 0 3.81436 0.908864 0 3.70529 0.969757 0 0.552127 -2.76512 0 0.49393 -2.78683 0 0.433576 -2.81746 0 0.370439 -2.86643 0 0.346607 -2.93834 0 0.32335 -3.01338 0 0.30172 -3.09128 0 0.281695 -3.16537 0 0.260291 -3.24469 0 0.241001 -3.32029 0 0.221711 -3.40193 0 0.204326 -3.47861 0 0.189715 -3.55017 0 0.17828 -3.60633 0 0.169002 -3.65434 0 0.20758 -3.72691 0 0.247973 -3.77844 0 0.358711 -3.83008 0 0.469134 -3.875 0 0.566147 -3.91227 0 0.635034 -3.93761 0 0.723113 -3.96792 0 0.838936 -4.0049 0 0.94199 -3.97091 0 1.0314 -3.91907 0 1.15189 -3.80273 0 1.26682 -3.68913 0 1.35646 -3.56105 0 1.40722 -3.40891 0 1.35873 -3.26143 0 1.30647 -3.12087 0 1.25343 -2.99378 0 1.18266 -2.86502 0 1.07898 -2.80564 0 0.979793 -2.76846 0 0.911578 -2.76997 0 0.836594 -2.76778 0 0.742275 -2.76534 0 0.649115 -2.76479 0 6.16011 0.610118 0 6.12971 0.521918 0 6.10576 0.430905 0 6.13211 0.348248 0 6.16027 0.268329 0 6.19122 0.189337 0 6.22434 0.110063 0 6.25933 0.0317874 0 6.29381 -0.0425719 0 6.32702 -0.113971 0 6.35918 -0.183762 0 6.39224 -0.250744 0 6.48073 -0.301423 0 6.57517 -0.345346 0 6.67936 -0.380601 0 6.79165 -0.407573 0 6.90674 -0.421676 0 7.06776 -0.412593 0 7.22581 -0.370918 0 7.29869 -0.336274 0 7.36854 -0.292014 0 7.41999 -0.155508 0 7.47141 -0.0183804 0 7.52483 0.121708 0 7.58043 0.263503 0 7.63783 0.407669 0 7.62604 0.513646 0 7.58162 0.584658 0 7.49416 0.719664 0 7.40515 0.852023 0 7.31477 0.989619 0 7.16596 1.07254 0 7.00704 1.11667 0 6.84615 1.12363 0 6.70908 1.02311 0 6.64108 0.973098 0 6.57188 0.921651 0 6.43551 0.818952 0 6.2983 0.715157 0 1.98317 6.7442 0 2.0602 6.61434 0 2.17612 6.53378 0 2.30411 6.46763 0 2.42308 6.47434 0 2.53497 6.4796 0 2.64212 6.48333 0 2.75098 6.4859 0 2.86244 6.4881 0 2.97255 6.49052 0 3.07716 6.49341 0 3.18313 6.49689 0 3.29246 6.50121 0 3.40316 6.50407 0 3.51432 6.60967 0 3.56052 6.72754 0 3.61061 6.85196 0 3.67322 7.0068 0 3.73786 7.16611 0 3.74905 7.27821 0 3.74869 7.38976 0 3.73497 7.49554 0 3.70844 7.5961 0 3.66847 7.69244 0 3.61607 7.78116 0 3.55228 7.86648 0 3.47934 7.94664 0 3.37314 8.0367 0 3.25285 8.11212 0 3.11933 8.16913 0 2.97409 8.20487 0 2.82261 8.21899 0 2.6701 8.21362 0 2.50142 8.18118 0 2.3428 8.11952 0 2.19849 8.03514 0 2.07469 7.92735 0 1.9729 7.79943 0 1.89403 7.659 0 1.83954 7.50723 0 1.81037 7.34424 0 1.8085 7.17409 0 1.83472 7.00362 0 1.90869 6.87204 0 2.02692 5.36531 0 1.93306 5.49698 0 1.81438 5.60113 0 1.68142 5.67391 0 1.57939 5.66987 0 1.47829 5.66324 0 1.37575 5.65429 0 1.26976 5.64282 0 1.16228 5.62983 0 1.05922 5.61629 0 0.959641 5.6021 0 0.856088 5.58605 0 0.751652 5.56658 0 0.650468 5.48401 0 0.562169 5.38562 0 0.522984 5.27044 0 0.484314 5.15539 0 0.433334 4.99966 0 0.454978 4.84386 0 0.533895 4.7636 0 0.60765 4.68158 0 0.680158 4.60421 0 0.754103 4.52854 0 0.828984 4.45471 0 0.90368 4.3845 0 0.97912 4.31613 0 1.05859 4.24761 0 1.14929 4.17508 0 1.24952 4.1024 0 1.42748 4.09704 0 1.50223 4.13835 0 1.58279 4.18096 0 1.72216 4.24795 0 1.81322 4.28764 0 1.90403 4.32084 0 2.02006 4.36382 0 2.14499 4.47025 0 2.21521 4.61097 0 2.28452 4.76119 0 2.2744 4.85104 0 2.26012 4.93797 0 2.19823 5.05508 0 2.13912 5.16744 0 2.08555 5.26489 0 -0.411434 -0.795456 0 -0.579304 -0.786295 0 -0.736887 -0.777929 0 -0.883063 -0.769487 0 -1.00203 -0.817277 0 -1.05288 -0.893849 0 -1.10003 -0.968328 0 -1.14828 -1.0461 0 -1.19672 -1.13041 0 -1.24308 -1.2105 0 -1.28893 -1.28915 0 -1.33652 -1.37165 0 -1.38418 -1.45358 0 -1.42944 -1.53623 0 -1.47287 -1.61846 0 -1.51657 -1.70385 0 -1.48421 -1.82328 0 -1.37213 -1.92478 0 -1.25772 -2.02627 0 -1.14699 -2.1297 0 -1.03885 -2.23075 0 -0.928169 -2.3315 0 -0.80822 -2.4368 0 -0.679209 -2.54834 0 -0.576511 -2.52591 0 -0.476612 -2.50271 0 -0.383969 -2.48102 0 -0.292888 -2.45931 0 -0.20379 -2.43828 0 -0.122132 -2.41995 0 -0.0465347 -2.40403 0 0.0183239 -2.39102 0 0.0977194 -2.37271 0 0.124479 -2.24766 0 0.154364 -2.10382 0 0.182172 -1.97304 0 0.209658 -1.86217 0 0.236253 -1.74966 0 0.21878 -1.6009 0 0.154279 -1.47652 0 0.100615 -1.36576 0 0.0480514 -1.25385 0 0.00301116 -1.156 0 -0.0508455 -1.04194 0 -0.108435 -0.949506 0 -0.195587 -0.883653 0 -0.297281 -0.828148 0 4.50549 -3.93545 0 4.40145 -3.87933 0 4.26719 -3.88417 0 4.1352 -3.90857 0 4.00833 -3.95267 0 3.96137 -4.02292 0 3.91488 -4.09367 0 3.86851 -4.1635 0 3.82162 -4.23416 0 3.77399 -4.3065 0 3.72806 -4.37905 0 3.68069 -4.45346 0 3.63247 -4.529 0 3.58291 -4.60525 0 3.52993 -4.68469 0 3.4785 -4.76001 0 3.46831 -4.89411 0 3.53666 -5.00575 0 3.60207 -5.11106 0 3.66768 -5.2163 0 3.73626 -5.32452 0 3.80917 -5.4359 0 3.88467 -5.5442 0 3.98475 -5.5779 0 4.0849 -5.59596 0 4.18572 -5.60043 0 4.28749 -5.59402 0 4.38942 -5.57551 0 4.49199 -5.54441 0 4.58712 -5.50255 0 4.67337 -5.44658 0 4.75239 -5.38059 0 4.82213 -5.30404 0 4.88011 -5.22236 0 4.92919 -5.1385 0 4.99765 -4.99903 0 5.04561 -4.85391 0 5.06757 -4.70569 0 5.06002 -4.55786 0 5.02657 -4.40913 0 4.96446 -4.26676 0 4.86751 -4.13979 0 4.74722 -4.07057 0 4.62587 -4.00237 0 -3.01375 5.74895 0 -2.88326 5.69348 0 -2.74393 5.65923 0 -2.59868 5.64401 0 -2.52131 5.69767 0 -2.44379 5.75194 0 -2.36488 5.80469 0 -2.28471 5.85848 0 -2.20493 5.91157 0 -2.12355 5.9656 0 -2.04211 6.01806 0 -1.9575 6.06975 0 -1.8694 6.12128 0 -1.78291 6.17078 0 -1.71815 6.27275 0 -1.66711 6.38236 0 -1.67128 6.52237 0 -1.67332 6.61268 0 -1.67585 6.70214 0 -1.71051 6.79637 0 -1.75474 6.89279 0 -1.81471 6.98206 0 -1.88709 7.06392 0 -1.96905 7.13305 0 -2.05687 7.18738 0 -2.14397 7.22989 0 -2.23397 7.2612 0 -2.32376 7.28461 0 -2.41605 7.29569 0 -2.50882 7.29334 0 -2.60281 7.28376 0 -2.6987 7.2629 0 -2.79257 7.23264 0 -2.88466 7.19475 0 -2.97365 7.1397 0 -3.06083 7.08455 0 -3.13253 7.01298 0 -3.19863 6.94002 0 -3.25057 6.86039 0 -3.29022 6.77861 0