<VTKFile type="PolyData" version="0.1" byte_order="LittleEndian">
  <PolyData>
    <Piece NumberOfPoints="3752" NumberOfPolys="87">
      <CellData>
        <DataArray type="Float64" Name="area" format="ascii">
1.76503 2.22979 3.01186 1.93143 2.68074 3.06481 2.75318 3.04779 2.46987 2.59098 1.91503 2.64737 1.80079 1.93428 1.41704 2.01557 1.97415 1.58153 1.60575 2.38038 1.79346 1.89942 1.34619 1.82787 2.87345 2.24251 2.37571 2.11778 2.1573 2.1645 2.00409 2.02841 2.4079 2.2553 2.04868 2.17151 1.64627 1.80975 2.0759 2.8092 1.50031 3.12853 2.16926 2.88283 3.07589 1.36938 2.24187 2.90373 2.66544 2.90582 2.78933 2.7021 2.52647 2.5906 2.45421 2.78984 2.43531 2.46817 2.32092 2.49042 2.10327 2.02099 2.19231 1.91699 2.29662 2.00029 1.86405 1.79544 1.87542 1.9956 1.80239 1.8794 2.00692 2.02011 1.93208 1.64871 2.10246 2.06505 1.82452 1.78625 1.6741 1.61731 1.52312 1.50677 1.69077 1.51802 1.55166 
        </DataArray>
        <DataArray type="Float64" Name="u" NumberOfComponents="1" format="ascii">
0 0 0 0 0 0 0 0 0 0 0 0 0 0 0 0 0 0 0 0 0 0 0 0 0 0 0 0 0 0 0 0 0 0 0 0 0 0 0 0 0 0 0 0 0 0 0 0 0 0 0 0 0 0 0 0 0 0 0 0 0 0 0 0 0 0 0 0 0 0 0 0 0 0 0 0 0 0 0 0 0 0 0 0 0 0 0 
        </DataArray>
        <DataArray type="Float64" Name="D" NumberOfComponents="1" format="ascii">
32 32 32 32 32 32 32 32 32 32 32 32 32 32 32 32 32 32 32 32 32 32 32 32 32 32 32 32 32 32 32 32 32 32 32 32 32 32 32 32 32 32 32 32 32 32 32 32 32 32 32 32 32 32 32 32 32 32 32 32 32 32 32 32 32 32 32 32 32 32 32 32 32 32 32 32 32 32 32 32 32 32 32 32 32 32 32 
        </DataArray>
        <DataArray type="Float64" Name="k" NumberOfComponents="1" format="ascii">
1 1 1 1 1 1 1 1 1 1 1 1 1 1 1 1 1 1 1 1 1 1 1 1 1 1 1 1 1 1 1 1 1 1 1 1 1 1 1 1 1 1 1 1 1 1 1 1 1 1 1 1 1 1 1 1 1 1 1 1 1 1 1 1 1 1 1 1 1 1 1 1 1 1 1 1 1 1 1 1 1 1 1 1 1 1 1 
        </DataArray>
        <DataArray type="Float64" Name="p" NumberOfComponents="1" format="ascii">
0 0 0 0 0 0 0 0 0 0 0 0 0 0 0 0 0 0 0 0 0 0 0 0 0 0 0 0 0 0 0 0 0 0 0 0 0 0 0 0 0 0 0 0 0 0 0 0 0 0 0 0 0 0 0 0 0 0 0 0 0 0 0 0 0 0 0 0 0 0 0 0 0 0 0 0 0 0 0 0 0 0 0 0 0 0 0 
        </DataArray>
        <DataArray type="Float64" Name="threshold" NumberOfComponents="1" format="ascii">
0.001 0.001 0.001 0.001 0.001 0.001 0.001 0.001 0.001 0.001 0.001 0.001 0.001 0.001 0.001 0.001 0.001 0.001 0.001 0.001 0.001 0.001 0.001 0.001 0.001 0.001 0.001 0.001 0.001 0.001 0.001 0.001 0.001 0.001 0.001 0.001 0.001 0.001 0.001 0.001 0.001 0.001 0.001 0.001 0.001 0.001 0.001 0.001 0.001 0.001 0.001 0.001 0.001 0.001 0.001 0.001 0.001 0.001 0.001 0.001 0.001 0.001 0.001 0.001 0.001 0.001 0.001 0.001 0.001 0.001 0.001 0.001 0.001 0.001 0.001 0.001 0.001 0.001 0.001 0.001 0.001 0.001 0.001 0.001 0.001 0.001 0.001 
        </DataArray>
        <DataArray type="Int8" Name="cell_type" format="ascii">
0 0 0 0 0 0 0 0 0 0 0 0 0 0 0 0 0 0 0 0 0 0 0 0 0 0 0 0 0 0 0 0 0 0 0 0 0 0 0 0 0 0 0 0 0 0 0 0 0 0 0 0 0 0 0 0 0 0 0 0 0 0 0 0 0 0 0 0 0 0 0 0 0 0 0 0 0 0 0 0 0 0 0 0 0 0 0 
        </DataArray>
        <DataArray type="Float64" Name="perimeter" format="ascii">
4.95395 5.53278 6.53169 5.20679 6.04614 6.5078 6.13472 6.34277 5.79781 5.92754 5.10176 6.15363 4.89405 5.10734 4.56144 5.20116 5.40886 4.56145 4.68895 5.72703 4.88835 5.03854 4.23671 4.97328 6.12385 5.51647 5.72165 5.28871 5.36847 5.51933 5.2706 5.35725 5.67564 5.48912 5.20004 5.37339 4.73867 5.0146 5.22866 6.21914 4.4912 6.58339 5.62352 6.46255 6.4761 4.33171 5.53533 6.26753 6.19058 6.14348 6.18916 6.01693 5.81598 5.84455 5.80739 6.04503 5.91221 5.68526 5.63044 5.73535 5.51422 5.26329 5.51159 5.11978 5.62573 5.19105 4.98133 5.01113 5.02945 5.31033 4.95028 5.06039 5.20234 5.18403 5.12116 4.77545 5.3822 5.19033 5.04279 4.82389 4.92549 4.71472 4.48814 4.41764 4.92956 4.61734 4.81954 
        </DataArray>
        <DataArray type="Float64" Name="neighbors" format="ascii">
4 5 7 6 5 6 8 5 5 6 5 7 5 4 4 5 5 3 5 6 4 4 5 4 3 6 6 3 3 5 6 5 3 3 5 3 4 4 2 8 6 5 6 6 7 4 7 6 5 3 6 4 5 3 6 5 6 3 5 2 5 6 4 3 5 5 4 6 3 5 5 6 4 3 5 5 5 4 5 2 4 5 4 4 6 5 6 
        </DataArray>
      </CellData>
      <Points>
        <DataArray type="Float64" Name="Points" NumberOfComponents="3" format="ascii">
2.64831 3.16823 0 2.53875 3.11495 0 2.40822 3.06469 0 2.31283 2.97327 0 2.30702 2.86941 0 2.30825 2.76668 0 2.29987 2.66683 0 2.27997 2.57222 0 2.25332 2.47576 0 2.22481 2.38142 0 2.19561 2.28517 0 2.16486 2.1874 0 2.13541 2.0897 0 2.10626 1.99194 0 2.07558 1.89077 0 2.12286 1.78856 0 2.1908 1.69921 0 2.2561 1.64152 0 2.39597 1.64093 0 2.50616 1.64474 0 2.61462 1.6496 0 2.72756 1.6557 0 2.84093 1.66287 0 2.95366 1.6783 0 3.06497 1.69559 0 3.17512 1.71406 0 3.28348 1.73447 0 3.35111 1.79841 0 3.41005 1.87002 0 3.45658 1.94792 0 3.49628 2.0291 0 3.52535 2.11717 0 3.54714 2.20852 0 3.56655 2.39871 0 3.56211 2.49369 0 3.51712 2.57269 0 3.46473 2.65844 0 3.40386 2.75257 0 3.33548 2.86173 0 3.28031 2.94725 0 3.22134 3.0311 0 3.11147 3.09305 0 3.00759 3.1579 0 2.87822 3.19849 0 2.7505 3.20998 0 -1.97541 -4.20405 0 -1.88798 -4.07028 0 -1.8016 -3.93669 0 -1.78947 -3.79661 0 -1.84529 -3.70078 0 -1.90529 -3.60622 0 -1.96805 -3.51245 0 -2.03328 -3.41954 0 -2.10087 -3.32753 0 -2.17066 -3.23634 0 -2.24224 -3.14587 0 -2.31553 -3.05589 0 -2.39004 -2.96737 0 -2.46593 -2.88133 0 -2.54504 -2.79717 0 -2.62693 -2.7162 0 -2.74179 -2.70005 0 -2.82423 -2.76219 0 -2.90565 -2.82661 0 -2.98639 -2.89477 0 -3.06792 -2.96481 0 -3.14877 -3.03697 0 -3.22762 -3.1103 0 -3.30612 -3.18339 0 -3.38297 -3.25641 0 -3.45912 -3.32964 0 -3.53369 -3.40363 0 -3.58249 -3.51365 0 -3.60446 -3.63223 0 -3.56786 -3.74747 0 -3.52769 -3.85989 0 -3.4838 -3.97052 0 -3.43619 -4.08056 0 -3.35764 -4.22468 0 -3.26586 -4.37022 0 -3.17521 -4.42832 0 -3.07525 -4.47781 0 -2.97706 -4.47592 0 -2.87901 -4.47821 0 -2.78146 -4.48343 0 -2.68316 -4.48932 0 -2.58098 -4.49392 0 -2.47529 -4.49759 0 -2.33451 -4.50082 0 -2.19269 -4.50047 0 -2.11647 -4.40277 0 -2.04449 -4.30355 0 1.30005 3.57539 0 1.34162 3.67707 0 1.32408 3.86745 0 1.33621 4.04208 0 1.34154 4.20534 0 1.23981 4.29136 0 1.14537 4.36408 0 1.05568 4.43276 0 0.966047 4.50115 0 0.877205 4.57361 0 0.788739 4.65151 0 0.700613 4.73366 0 0.61387 4.81855 0 0.529983 4.90531 0 0.449535 4.99489 0 0.372567 5.0874 0 0.255912 5.12754 0 0.139679 5.07385 0 -0.0126307 5.00852 0 -0.166606 4.95318 0 -0.317261 4.90064 0 -0.467431 4.85148 0 -0.61789 4.80869 0 -0.664905 4.71314 0 -0.702224 4.61535 0 -0.726608 4.51466 0 -0.713816 4.39955 0 -0.703467 4.28391 0 -0.694346 4.16799 0 -0.656131 4.00478 0 -0.594009 3.84821 0 -0.502709 3.73647 0 -0.417218 3.62261 0 -0.336557 3.50685 0 -0.259516 3.38841 0 -0.185215 3.2671 0 -0.115519 3.14448 0 -0.0495276 3.0202 0 0.0991842 3.06547 0 0.252143 3.1067 0 0.409341 3.13825 0 0.568755 3.16099 0 0.729993 3.17138 0 0.833125 3.17507 0 0.930706 3.21344 0 1.02312 3.25963 0 1.09692 3.33345 0 1.17105 3.40532 0 1.24393 3.47582 0 -0.387809 -5.18844 0 -0.446294 -5.10086 0 -0.542432 -5.0589 0 -0.641877 -5.02579 0 -0.737229 -5.03181 0 -0.831825 -5.04136 0 -0.933503 -5.05117 0 -1.04009 -5.06096 0 -1.14497 -5.07041 0 -1.24693 -5.0795 0 -1.34871 -5.0883 0 -1.44791 -5.09538 0 -1.54867 -5.10141 0 -1.65457 -5.10744 0 -1.75748 -5.11267 0 -1.85775 -5.16324 0 -1.94863 -5.23116 0 -2.03186 -5.38726 0 -2.07288 -5.46785 0 -2.10933 -5.5441 0 -2.12253 -5.65658 0 -2.10966 -5.75143 0 -2.0238 -5.89175 0 -1.94694 -6.03599 0 -1.87636 -6.18354 0 -1.74874 -6.29479 0 -1.60301 -6.31713 0 -1.46044 -6.33593 0 -1.36573 -6.34694 0 -1.26675 -6.35802 0 -1.16787 -6.37075 0 -1.06826 -6.38487 0 -0.967822 -6.39803 0 -0.869527 -6.35958 0 -0.771652 -6.30422 0 -0.721499 -6.2182 0 -0.673414 -6.13495 0 -0.626692 -6.05416 0 -0.578797 -5.98059 0 -0.531616 -5.90845 0 -0.479179 -5.83595 0 -0.424956 -5.76124 0 -0.368423 -5.68541 0 -0.309422 -5.60925 0 -0.250368 -5.53065 0 -0.241036 -5.41877 0 -0.287784 -5.34151 0 -0.33728 -5.26505 0 5.64222 2.39398 0 5.48399 2.37779 0 5.35162 2.28002 0 5.24067 2.15827 0 5.24754 2.04167 0 5.25795 1.92456 0 5.26964 1.80667 0 5.28261 1.6887 0 5.29702 1.57056 0 5.31331 1.45149 0 5.33345 1.33306 0 5.35546 1.21644 0 5.37913 1.10041 0 5.40456 0.984105 0 5.43173 0.868144 0 5.4616 0.753726 0 5.57164 0.654817 0 5.68303 0.63134 0 5.79545 0.6076 0 5.90789 0.583911 0 6.02051 0.560025 0 6.12956 0.566949 0 6.23762 0.587648 0 6.36196 0.68638 0 6.48613 0.784037 0 6.61007 0.881301 0 6.7352 0.978349 0 6.86117 1.07517 0 6.9868 1.17431 0 7.02077 1.2866 0 7.04083 1.40205 0 7.04699 1.51838 0 7.03905 1.63526 0 6.95079 1.80555 0 6.89128 1.92073 0 6.83206 2.03523 0 6.77385 2.14983 0 6.71535 2.26466 0 6.6559 2.37914 0 6.54945 2.47077 0 6.41948 2.46207 0 6.28946 2.45152 0 6.15976 2.44088 0 6.03022 2.42992 0 5.90072 2.41858 0 5.77136 2.40666 0 -2.81655 5.38371 0 -2.89872 5.42573 0 -3.04465 5.48038 0 -3.19655 5.51353 0 -3.31495 5.43399 0 -3.4369 5.3567 0 -3.56051 5.28208 0 -3.68569 5.21081 0 -3.81318 5.14214 0 -3.94361 5.07624 0 -4.0695 4.96479 0 -4.11467 4.82452 0 -4.16308 4.68591 0 -4.2163 4.54906 0 -4.27389 4.41449 0 -4.33636 4.28387 0 -4.33816 4.15216 0 -4.24984 4.07233 0 -4.13262 3.96033 0 -4.02264 3.84141 0 -3.91629 3.71984 0 -3.81747 3.58955 0 -3.72572 3.45656 0 -3.63785 3.31993 0 -3.53589 3.29096 0 -3.43254 3.27341 0 -3.32828 3.26645 0 -3.22432 3.27482 0 -3.07614 3.35099 0 -2.92784 3.42371 0 -2.77906 3.49298 0 -2.62809 3.55932 0 -2.57326 3.69798 0 -2.56147 3.84956 0 -2.54258 4.00141 0 -2.51714 4.15341 0 -2.48588 4.30462 0 -2.44911 4.45406 0 -2.40621 4.60132 0 -2.35657 4.74534 0 -2.38087 4.89463 0 -2.47402 5.00126 0 -2.56526 5.11027 0 -2.65359 5.22134 0 -2.73794 5.3347 0 -5.52305 -1.5025 0 -5.65865 -1.52998 0 -5.79665 -1.55061 0 -5.90587 -1.61266 0 -5.93192 -1.70328 0 -5.95892 -1.79334 0 -5.98819 -1.8821 0 -6.01968 -1.96951 0 -6.05348 -2.05615 0 -6.08961 -2.14216 0 -6.12809 -2.22755 0 -6.16909 -2.31243 0 -6.21288 -2.3969 0 -6.25959 -2.48077 0 -6.30915 -2.56352 0 -6.28605 -2.67239 0 -6.20888 -2.76175 0 -6.10469 -2.897 0 -6.00598 -3.03799 0 -5.91147 -3.18168 0 -5.82342 -3.32817 0 -5.74824 -3.40089 0 -5.66876 -3.46522 0 -5.56474 -3.48943 0 -5.4604 -3.51207 0 -5.35768 -3.52857 0 -5.24954 -3.51159 0 -5.12259 -3.40062 0 -4.99447 -3.28984 0 -4.91122 -3.22098 0 -4.82688 -3.15202 0 -4.74092 -3.08576 0 -4.65755 -3.02072 0 -4.59811 -2.8778 0 -4.585 -2.72278 0 -4.56811 -2.56788 0 -4.54753 -2.41201 0 -4.53131 -2.29968 0 -4.51136 -2.18683 0 -4.51189 -2.06093 0 -4.5233 -1.93453 0 -4.58243 -1.83326 0 -4.64024 -1.73169 0 -4.69617 -1.62927 0 -4.75258 -1.5272 0 -4.85183 -1.48883 0 -4.95119 -1.45142 0 -5.05058 -1.41349 0 -5.17898 -1.40723 0 -5.34887 -1.45989 0 5.75183 5.47525 0 5.67781 5.61966 0 5.58155 5.7507 0 5.46608 5.86464 0 5.33496 5.95929 0 5.20168 5.95212 0 5.06849 5.94446 0 4.93532 5.93665 0 4.80242 5.92874 0 4.67026 5.92072 0 4.5384 5.91252 0 4.40736 5.90411 0 4.2772 5.89546 0 4.14695 5.88654 0 4.03853 5.79251 0 3.94486 5.68412 0 3.9013 5.56078 0 3.84917 5.41102 0 3.79711 5.26126 0 3.74462 5.11148 0 3.75221 5.00972 0 3.76899 4.91025 0 3.79571 4.81304 0 3.83079 4.71789 0 3.8744 4.62488 0 3.9292 4.53453 0 4.0952 4.45005 0 4.26488 4.3651 0 4.43651 4.28174 0 4.61048 4.19949 0 4.7864 4.11835 0 4.96103 4.0409 0 5.09703 4.074 0 5.22649 4.12681 0 5.34752 4.20741 0 5.46797 4.28801 0 5.57022 4.41464 0 5.65501 4.55386 0 5.71067 4.74289 0 5.76818 4.93195 0 5.82806 5.12058 0 5.80621 5.30113 0 2.25413 -7.04427 0 2.3422 -6.9373 0 2.41377 -6.81876 0 2.4672 -6.69131 0 2.50125 -6.55773 0 2.45939 -6.44369 0 2.41699 -6.32977 0 2.37485 -6.21658 0 2.33275 -6.1036 0 2.29069 -5.99074 0 2.24874 -5.87814 0 2.2069 -5.7659 0 2.16509 -5.65414 0 2.12303 -5.54232 0 2.07893 -5.43197 0 1.92549 -5.43264 0 1.77155 -5.43086 0 1.68142 -5.42716 0 1.59052 -5.42336 0 1.47367 -5.41707 0 1.32861 -5.44946 0 1.18655 -5.4962 0 1.08057 -5.57208 0 0.974363 -5.64725 0 0.915803 -5.76314 0 0.92648 -5.95063 0 0.92823 -6.13549 0 0.923807 -6.25367 0 0.914816 -6.37111 0 0.901348 -6.4889 0 0.8834 -6.60653 0 0.90547 -6.74269 0 0.947079 -6.87487 0 1.0212 -6.97872 0 1.09393 -7.08445 0 1.16433 -7.19249 0 1.23153 -7.30241 0 1.36398 -7.3366 0 1.49997 -7.35129 0 1.63615 -7.34676 0 1.76982 -7.32352 0 1.89835 -7.28298 0 2.01961 -7.22584 0 2.14398 -7.14382 0 3.7979 -3.47553 0 3.9447 -3.49 0 4.09231 -3.48119 0 4.2373 -3.44939 0 4.30339 -3.35157 0 4.36942 -3.25292 0 4.43521 -3.15375 0 4.50069 -3.05417 0 4.56586 -2.95428 0 4.63056 -2.85445 0 4.69493 -2.75476 0 4.75908 -2.6551 0 4.82273 -2.55561 0 4.88503 -2.45555 0 4.87981 -2.31306 0 4.82186 -2.18069 0 4.76501 -2.04779 0 4.69056 -1.96793 0 4.60805 -1.89564 0 4.51792 -1.83195 0 4.41824 -1.78718 0 4.31832 -1.74175 0 4.2178 -1.69597 0 4.11276 -1.67693 0 4.00593 -1.67045 0 3.85055 -1.74178 0 3.69312 -1.80945 0 3.59532 -1.85013 0 3.49763 -1.88943 0 3.39934 -1.92351 0 3.30215 -1.95643 0 3.20581 -1.98879 0 3.10845 -2.02153 0 3.02 -2.07885 0 2.93812 -2.15206 0 2.94513 -2.3268 0 2.95067 -2.45346 0 2.95746 -2.57997 0 2.96616 -2.70516 0 2.9794 -2.82887 0 2.99481 -2.95182 0 3.01558 -3.0738 0 3.13534 -3.18719 0 3.30127 -3.25683 0 3.46709 -3.32816 0 3.63283 -3.4007 0 -4.64872 2.1919 0 -4.67536 2.0694 0 -4.66478 1.9436 0 -4.63057 1.82258 0 -4.55256 1.7606 0 -4.47318 1.69964 0 -4.39349 1.63894 0 -4.31355 1.57857 0 -4.23404 1.51932 0 -4.15513 1.46132 0 -4.07647 1.4042 0 -3.99743 1.3475 0 -3.91764 1.29112 0 -3.83734 1.23539 0 -3.75606 1.1816 0 -3.6386 1.18363 0 -3.55319 1.23589 0 -3.44721 1.30593 0 -3.34526 1.37878 0 -3.24644 1.45552 0 -3.14965 1.53713 0 -3.08909 1.66638 0 -3.06228 1.80673 0 -3.10177 1.93613 0 -3.15672 2.11398 0 -3.21724 2.28827 0 -3.28074 2.45884 0 -3.34634 2.62877 0 -3.4167 2.79619 0 -3.50492 2.84308 0 -3.59947 2.87423 0 -3.69815 2.88939 0 -3.79766 2.88804 0 -3.89453 2.8693 0 -3.98655 2.81858 0 -4.10662 2.75197 0 -4.226 2.68478 0 -4.34565 2.61621 0 -4.46424 2.54662 0 -4.58108 2.47601 0 -4.61654 2.33402 0 2.36477 -1.69389 0 2.18596 -1.63587 0 2.03755 -1.64264 0 1.85866 -1.65461 0 1.82763 -1.75736 0 1.79511 -1.878 0 1.75922 -1.98638 0 1.71683 -2.08217 0 1.66237 -2.18758 0 1.60293 -2.28753 0 1.5434 -2.37377 0 1.47644 -2.45211 0 1.40018 -2.53205 0 1.31205 -2.60905 0 1.21378 -2.67835 0 1.16776 -2.7643 0 1.13659 -2.85029 0 1.17278 -2.93524 0 1.20916 -3.01976 0 1.24456 -3.10361 0 1.27997 -3.189 0 1.31644 -3.27737 0 1.35009 -3.36892 0 1.38445 -3.46282 0 1.45951 -3.52903 0 1.54389 -3.59024 0 1.64532 -3.60721 0 1.7492 -3.62495 0 1.8537 -3.64557 0 1.95773 -3.67023 0 2.06208 -3.69379 0 2.17185 -3.67107 0 2.27906 -3.63926 0 2.3588 -3.57653 0 2.43902 -3.51499 0 2.53848 -3.44162 0 2.63952 -3.37127 0 2.74214 -3.30399 0 2.84667 -3.23971 0 2.953 -3.17844 0 3.0036 -3.07018 0 2.98544 -2.95675 0 2.97093 -2.84283 0 2.95625 -2.7063 0 2.94664 -2.56725 0 2.93934 -2.42639 0 2.9335 -2.28602 0 2.92593 -2.14833 0 2.81087 -2.01267 0 2.65899 -1.91352 0 2.50868 -1.80602 0 0.144935 6.29076 0 0.0822132 6.37015 0 -0.0136932 6.41372 0 -0.114159 6.44237 0 -0.202881 6.40661 0 -0.290504 6.37011 0 -0.377181 6.33264 0 -0.464305 6.2945 0 -0.549936 6.2557 0 -0.634337 6.21602 0 -0.718623 6.17542 0 -0.80272 6.1335 0 -0.886976 6.09043 0 -0.9694 6.04522 0 -1.01655 5.9377 0 -1.04617 5.82419 0 -1.04353 5.72209 0 -1.03963 5.57041 0 -1.03625 5.42014 0 -1.03169 5.27128 0 -0.987401 5.17842 0 -0.932164 5.09241 0 -0.869092 5.01095 0 -0.793631 4.93899 0 -0.712256 4.87412 0 -0.624002 4.8201 0 -0.536962 4.84204 0 -0.45028 4.86748 0 -0.277216 4.92502 0 -0.100598 4.98738 0 -0.0111504 5.01995 0 0.078474 5.05837 0 0.168635 5.09924 0 0.261272 5.14138 0 0.341871 5.25477 0 0.382521 5.38129 0 0.422732 5.50808 0 0.462111 5.63434 0 0.454502 5.76891 0 0.427755 5.90131 0 0.372008 5.98152 0 0.315713 6.06153 0 0.25883 6.14 0 0.201848 6.21615 0 8.29399 2.614 0 8.22999 2.73083 0 8.14675 2.83533 0 8.04684 2.92419 0 7.94226 2.93679 0 7.83801 2.94787 0 7.73473 2.95886 0 7.63215 2.96979 0 7.52981 2.98072 0 7.4277 2.99165 0 7.32612 3.00252 0 7.22503 3.01324 0 7.12451 3.02372 0 7.02468 3.03217 0 6.8939 2.94736 0 6.82275 2.82944 0 6.75298 2.71129 0 6.66408 2.55978 0 6.66718 2.3809 0 6.74735 2.22384 0 6.82677 2.0676 0 6.8814 1.96144 0 6.93614 1.85584 0 6.99058 1.75026 0 7.04709 1.64513 0 7.14555 1.58566 0 7.25357 1.54161 0 7.36725 1.51448 0 7.48399 1.50557 0 7.58188 1.56125 0 7.6799 1.61831 0 7.77824 1.67546 0 7.87725 1.7316 0 7.97692 1.78694 0 8.07824 1.84191 0 8.18077 1.89674 0 8.28378 1.95056 0 8.32609 2.05749 0 8.35272 2.16969 0 8.36271 2.28436 0 8.35549 2.39914 0 8.33237 2.5087 0 2.26229 4.94798 0 2.20674 4.83131 0 2.19081 4.68735 0 2.24672 4.55904 0 2.30072 4.46328 0 2.37142 4.36364 0 2.43369 4.27871 0 2.49236 4.18675 0 2.55242 4.09841 0 2.61985 4.01176 0 2.66826 3.93493 0 2.71058 3.84733 0 2.77757 3.74506 0 2.84661 3.6201 0 2.92199 3.56808 0 3.00414 3.51193 0 3.1706 3.52396 0 3.27273 3.6531 0 3.34243 3.73019 0 3.38237 3.79298 0 3.42761 3.86622 0 3.4709 3.94148 0 3.52044 4.01913 0 3.55882 4.12514 0 3.5905 4.24923 0 3.61652 4.3794 0 3.56061 4.5676 0 3.45861 4.7344 0 3.31842 4.86602 0 3.21045 4.90025 0 3.10505 4.92993 0 3.00631 4.95411 0 2.91488 4.97164 0 2.82613 4.98654 0 2.7309 5.00055 0 2.63404 5.01302 0 2.53605 5.02047 0 2.43296 5.02301 0 2.33015 5.02394 0 -2.06754 -7.60411 0 -2.00881 -7.6692 0 -1.91246 -7.75121 0 -1.80409 -7.81865 0 -1.68781 -7.86899 0 -1.59365 -7.83077 0 -1.49903 -7.79322 0 -1.40351 -7.7563 0 -1.30777 -7.72022 0 -1.21175 -7.68474 0 -1.11577 -7.64989 0 -1.01949 -7.61544 0 -0.922387 -7.58084 0 -0.824873 -7.54585 0 -0.727061 -7.51032 0 -0.62941 -7.47306 0 -0.551713 -7.38179 0 -0.531419 -7.24216 0 -0.503207 -7.05055 0 -0.516763 -6.95006 0 -0.550588 -6.8553 0 -0.607438 -6.76896 0 -0.660762 -6.68725 0 -0.714859 -6.60334 0 -0.789681 -6.53168 0 -0.876711 -6.46259 0 -0.965867 -6.40948 0 -1.15545 -6.38252 0 -1.27601 -6.36695 0 -1.39648 -6.35353 0 -1.51388 -6.33941 0 -1.62955 -6.32343 0 -1.74813 -6.30628 0 -1.8663 -6.35148 0 -1.92637 -6.44007 0 -1.98627 -6.53165 0 -2.045 -6.62135 0 -2.10457 -6.70971 0 -2.16704 -6.80344 0 -2.23015 -6.89824 0 -2.25552 -6.99242 0 -2.26355 -7.08778 0 -2.2438 -7.23936 0 -2.19429 -7.38983 0 -2.1593 -7.46328 0 -2.11748 -7.5351 0 -5.20396 0.211626 0 -5.29321 0.131098 0 -5.36604 0.0353553 0 -5.42072 -0.0697518 0 -5.38747 -0.194213 0 -5.35569 -0.317009 0 -5.32419 -0.439685 0 -5.2938 -0.562285 0 -5.2644 -0.684916 0 -5.23642 -0.807883 0 -5.20894 -0.930927 0 -5.18185 -1.05411 0 -5.15503 -1.17708 0 -5.12826 -1.29918 0 -5.04044 -1.40694 0 -4.89716 -1.46118 0 -4.75321 -1.51488 0 -4.66276 -1.41154 0 -4.57411 -1.30725 0 -4.48645 -1.20425 0 -4.39914 -1.10242 0 -4.31187 -1.00088 0 -4.22502 -0.899775 0 -4.13872 -0.799308 0 -4.05264 -0.699283 0 -3.9664 -0.59942 0 -3.87974 -0.499167 0 -3.79475 -0.398266 0 -3.77804 -0.239344 0 -3.84918 -0.0874447 0 -3.90492 0.0256495 0 -3.96585 0.136207 0 -4.08211 0.209603 0 -4.19786 0.220895 0 -4.31402 0.231283 0 -4.43056 0.241881 0 -4.54782 0.252715 0 -4.66537 0.263839 0 -4.78276 0.278102 0 -4.90027 0.292644 0 -5.01822 0.307692 0 -5.1147 0.267685 0 -5.13289 -6.23483 0 -5.00635 -6.22747 0 -4.89526 -6.20514 0 -4.78181 -6.18135 0 -4.70922 -6.11965 0 -4.58495 -6.07019 0 -4.50862 -5.99452 0 -4.48159 -5.93254 0 -4.47403 -5.8564 0 -4.46798 -5.78329 0 -4.4644 -5.71112 0 -4.45884 -5.64511 0 -4.44512 -5.57716 0 -4.436 -5.50178 0 -4.42973 -5.41593 0 -4.41204 -5.33787 0 -4.4467 -5.20998 0 -4.55333 -5.13276 0 -4.6452 -5.06505 0 -4.74367 -4.9948 0 -4.84232 -4.9262 0 -4.95096 -4.84836 0 -5.07158 -4.76364 0 -5.21257 -4.74726 0 -5.33803 -4.83585 0 -5.46295 -4.93273 0 -5.54877 -5.01328 0 -5.63657 -5.0835 0 -5.70753 -5.14149 0 -5.76635 -5.19992 0 -5.79895 -5.2543 0 -5.82546 -5.34094 0 -5.85419 -5.4381 0 -5.85479 -5.54029 0 -5.83598 -5.63742 0 -5.80553 -5.73708 0 -5.7348 -5.88602 0 -5.62657 -6.00866 0 -5.48387 -6.12497 0 -5.327 -6.19358 0 -1.54395 -0.344107 0 -1.43145 -0.367262 0 -1.33374 -0.334011 0 -1.24536 -0.279975 0 -1.19798 -0.187679 0 -1.15143 -0.0947831 0 -1.10563 -0.00604735 0 -1.06384 0.0795265 0 -1.01936 0.165714 0 -0.973003 0.25596 0 -0.930521 0.339351 0 -0.889633 0.427552 0 -0.846433 0.52248 0 -0.80609 0.608819 0 -0.805905 0.707137 0 -0.82987 0.802818 0 -0.872346 0.891876 0 -0.995923 1.03472 0 -1.05762 1.1047 0 -1.1221 1.17296 0 -1.2165 1.15163 0 -1.31248 1.12741 0 -1.4081 1.10109 0 -1.50297 1.07572 0 -1.59767 1.04725 0 -1.68938 1.01953 0 -1.80095 0.98542 0 -1.91141 0.951563 0 -2.02311 0.916678 0 -2.11047 0.841898 0 -2.18444 0.752264 0 -2.20648 0.643295 0 -2.22446 0.536003 0 -2.23536 0.426657 0 -2.23921 0.317005 0 -2.23717 0.207517 0 -2.22987 0.0977673 0 -2.2178 -0.015048 0 -2.11988 -0.122056 0 -2.00567 -0.175312 0 -1.8911 -0.225147 0 -1.77724 -0.269433 0 -1.66142 -0.309701 0 -0.597176 3.83662 0 -0.698132 3.87037 0 -0.803587 3.88284 0 -0.888303 3.83434 0 -0.973092 3.78517 0 -1.05814 3.73616 0 -1.14397 3.68705 0 -1.23262 3.64051 0 -1.3221 3.59437 0 -1.41235 3.54837 0 -1.50236 3.50294 0 -1.59224 3.45835 0 -1.68329 3.41321 0 -1.7755 3.36754 0 -1.86755 3.3221 0 -1.9592 3.27616 0 -2.02107 3.18116 0 -1.97878 3.00387 0 -1.93566 2.82461 0 -1.89367 2.64875 0 -1.81667 2.49194 0 -1.69713 2.36209 0 -1.60684 2.32635 0 -1.51532 2.28846 0 -1.42423 2.24851 0 -1.33407 2.2088 0 -1.24403 2.16888 0 -1.15524 2.12417 0 -1.06655 2.07901 0 -0.976966 2.0351 0 -0.879258 2.0854 0 -0.782259 2.13549 0 -0.683667 2.18556 0 -0.584864 2.23552 0 -0.486647 2.28459 0 -0.388564 2.33492 0 -0.299928 2.44011 0 -0.255196 2.55006 0 -0.207204 2.66605 0 -0.158114 2.78314 0 -0.10893 2.89782 0 -0.0589744 3.01081 0 -0.131475 3.15265 0 -0.211796 3.29173 0 -0.300111 3.43291 0 -0.393979 3.5722 0 -0.492931 3.70714 0 -6.63881 4.14877 0 -6.67415 4.02856 0 -6.69002 3.9049 0 -6.68555 3.78018 0 -6.61108 3.70833 0 -6.53849 3.63739 0 -6.46599 3.56563 0 -6.395 3.49538 0 -6.32424 3.42419 0 -6.25506 3.35406 0 -6.18598 3.28313 0 -6.11833 3.21299 0 -6.0509 3.14321 0 -5.98412 3.07383 0 -5.86368 3.06691 0 -5.76372 3.10317 0 -5.66224 3.13993 0 -5.53242 3.18834 0 -5.40787 3.23706 0 -5.34681 3.31316 0 -5.29569 3.3967 0 -5.26215 3.48166 0 -5.22864 3.56661 0 -5.16173 3.73628 0 -5.09384 3.90751 0 -5.10015 4.06727 0 -5.19937 4.16675 0 -5.29827 4.26641 0 -5.36803 4.33726 0 -5.43783 4.40862 0 -5.50776 4.48054 0 -5.57822 4.554 0 -5.64781 4.6288 0 -5.75292 4.65794 0 -5.86203 4.67207 0 -5.97275 4.66962 0 -6.08279 4.65165 0 -6.18847 4.61767 0 -6.29109 4.56892 0 -6.38435 4.50495 0 -6.46507 4.43037 0 -6.53491 4.34507 0 -6.59324 4.2506 0 3.77435 1.12152 0 3.66952 1.11087 0 3.56888 1.0802 0 3.49941 1.01179 0 3.43283 0.940282 0 3.36885 0.867178 0 3.30676 0.792088 0 3.24666 0.714855 0 3.18799 0.634214 0 3.13069 0.549866 0 3.07505 0.462299 0 3.02098 0.370849 0 2.97099 0.277446 0 2.97617 0.149694 0 3.00719 0.0264669 0 3.06294 -0.0884154 0 3.14052 -0.189808 0 3.28779 -0.264383 0 3.43552 -0.336971 0 3.58314 -0.407337 0 3.73095 -0.473032 0 3.87825 -0.535547 0 4.03879 -0.527495 0 4.16004 -0.415055 0 4.23512 -0.344927 0 4.30973 -0.274143 0 4.38314 -0.203257 0 4.45511 -0.132754 0 4.52652 -0.0622447 0 4.59645 0.00840886 0 4.63849 0.113223 0 4.66111 0.223533 0 4.66476 0.335318 0 4.65083 0.445686 0 4.5335 0.571878 0 4.43775 0.669982 0 4.33365 0.758097 0 4.22646 0.844142 0 4.1154 0.927019 0 3.99501 0.999718 0 3.87468 1.06923 0 0.490048 -2.76685 0 0.421508 -2.77994 0 0.363193 -2.82189 0 0.293914 -2.88044 0 0.259798 -2.96211 0 0.224256 -3.04345 0 0.19272 -3.13033 0 0.17906 -3.21548 0 0.166527 -3.3087 0 0.142637 -3.39808 0 0.137432 -3.49636 0 0.131972 -3.60366 0 0.125997 -3.7024 0 0.12534 -3.77555 0 0.120947 -3.83337 0 0.169955 -3.90688 0 0.225216 -3.95461 0 0.346714 -3.98971 0 0.462264 -4.03295 0 0.566122 -4.06785 0 0.642304 -4.09044 0 0.743993 -4.11413 0 0.881895 -4.12638 0 0.970817 -4.07836 0 1.04874 -4.01623 0 1.15303 -3.88646 0 1.25636 -3.76401 0 1.33608 -3.6268 0 1.37703 -3.47177 0 1.31619 -3.30516 0 1.25311 -3.14989 0 1.18881 -2.99778 0 1.12327 -2.84547 0 1.02576 -2.77842 0 0.928121 -2.74673 0 0.861903 -2.7578 0 0.785114 -2.76158 0 0.688695 -2.76766 0 0.594198 -2.77191 0 6.25129 0.586368 0 6.23278 0.490743 0 6.22988 0.394992 0 6.26847 0.305631 0 6.30721 0.216288 0 6.346 0.126845 0 6.3854 0.0364186 0 6.42497 -0.0536305 0 6.46422 -0.142498 0 6.50341 -0.231287 0 6.54282 -0.320751 0 6.58273 -0.409274 0 6.66612 -0.473868 0 6.75887 -0.523719 0 6.85813 -0.560312 0 6.96269 -0.579471 0 7.06934 -0.584119 0 7.2181 -0.560794 0 7.35913 -0.505764 0 7.42481 -0.4674 0 7.486 -0.420837 0 7.53297 -0.264759 0 7.58124 -0.107575 0 7.63013 0.0506516 0 7.67904 0.208543 0 7.7281 0.366663 0 7.71685 0.462459 0 7.67461 0.534399 0 7.58855 0.676407 0 7.50259 0.819356 0 7.41627 0.963327 0 7.28853 1.05973 0 7.14329 1.12613 0 6.98772 1.16043 0 6.83942 1.04586 0 6.69086 0.93153 0 6.54287 0.815953 0 6.3963 0.700713 0 1.97171 6.95042 0 2.04313 6.80748 0 2.15297 6.71415 0 2.27732 6.6422 0 2.40207 6.63709 0 2.52671 6.63344 0 2.65167 6.63042 0 2.77707 6.6278 0 2.90231 6.62549 0 3.02758 6.62343 0 3.15307 6.62182 0 3.27851 6.62091 0 3.40455 6.62066 0 3.53126 6.62106 0 3.63737 6.72968 0 3.68335 6.85962 0 3.72917 6.99008 0 3.78567 7.15194 0 3.84264 7.31484 0 3.84176 7.41994 0 3.82999 7.52504 0 3.80724 7.62863 0 3.77369 7.72938 0 3.72894 7.82581 0 3.67456 7.91675 0 3.61119 8.00207 0 3.53797 8.08005 0 3.4279 8.17275 0 3.30511 8.24867 0 3.17308 8.30649 0 3.03406 8.34536 0 2.89143 8.3648 0 2.74721 8.36365 0 2.58444 8.33712 0 2.4285 8.28443 0 2.28463 8.20749 0 2.15594 8.10846 0 2.04539 7.98931 0 1.95517 7.85361 0 1.88761 7.70485 0 1.84489 7.54751 0 1.82805 7.38541 0 1.83719 7.22346 0 1.90399 7.08685 0 2.00943 5.55315 0 1.94081 5.69603 0 1.81448 5.79906 0 1.67458 5.86649 0 1.56002 5.87229 0 1.44702 5.87557 0 1.33388 5.87568 0 1.22127 5.87251 0 1.10885 5.86611 0 0.996085 5.85642 0 0.884331 5.84341 0 0.772577 5.8268 0 0.662536 5.80618 0 0.560227 5.72763 0 0.473119 5.63321 0 0.437128 5.52069 0 0.401729 5.40898 0 0.353033 5.25541 0 0.376336 5.09897 0 0.459387 4.99874 0 0.546513 4.90242 0 0.638417 4.80833 0 0.733579 4.71641 0 0.831015 4.62737 0 0.929307 4.54375 0 1.02827 4.4662 0 1.1291 4.38909 0 1.23815 4.30548 0 1.35004 4.21416 0 1.51929 4.27409 0 1.6774 4.36809 0 1.81039 4.44149 0 1.8929 4.48886 0 1.97018 4.53551 0 2.0787 4.57925 0 2.16052 4.69302 0 2.19411 4.82767 0 2.25314 4.95736 0 2.23564 5.11801 0 2.17024 5.23261 0 2.10907 5.34931 0 2.05981 5.44919 0 -0.482799 -0.83787 0 -0.646949 -0.831909 0 -0.798446 -0.819361 0 -0.944633 -0.797752 0 -1.05895 -0.833812 0 -1.11804 -0.923504 0 -1.178 -1.01199 0 -1.2385 -1.10262 0 -1.2987 -1.194 0 -1.35797 -1.28426 0 -1.41599 -1.37515 0 -1.47302 -1.46589 0 -1.52764 -1.55787 0 -1.58214 -1.65334 0 -1.63596 -1.74715 0 -1.68834 -1.83884 0 -1.64256 -1.94749 0 -1.51196 -2.04046 0 -1.38319 -2.13619 0 -1.25412 -2.22927 0 -1.12338 -2.31768 0 -0.99108 -2.40616 0 -0.854409 -2.5022 0 -0.712972 -2.60438 0 -0.614145 -2.57985 0 -0.515152 -2.55181 0 -0.420005 -2.52252 0 -0.327599 -2.49404 0 -0.24121 -2.46477 0 -0.160895 -2.43728 0 -0.0868999 -2.41108 0 -0.0171254 -2.38623 0 0.0744586 -2.35613 0 0.10193 -2.23759 0 0.146115 -2.10435 0 0.186538 -1.9847 0 0.223475 -1.88041 0 0.253845 -1.77596 0 0.226309 -1.6537 0 0.147535 -1.53473 0 0.0765895 -1.42693 0 0.0120024 -1.31461 0 -0.044297 -1.21344 0 -0.104511 -1.09323 0 -0.159702 -0.988124 0 -0.250764 -0.909553 0 -0.361209 -0.856798 0 4.61963 -4.04786 0 4.5096 -3.9901 0 4.37783 -3.97625 0 4.24544 -3.98249 0 4.11576 -4.00915 0 4.06713 -4.09094 0 4.02019 -4.17388 0 3.97288 -4.25706 0 3.92522 -4.34054 0 3.87717 -4.42453 0 3.82902 -4.50855 0 3.77996 -4.59247 0 3.73087 -4.67718 0 3.68157 -4.76186 0 3.63165 -4.84628 0 3.5823 -4.93148 0 3.57108 -5.05437 0 3.65625 -5.16793 0 3.74456 -5.27868 0 3.83487 -5.38866 0 3.92716 -5.49801 0 4.0215 -5.60656 0 4.11948 -5.71345 0 4.22133 -5.73372 0 4.32523 -5.74168 0 4.42953 -5.73739 0 4.53254 -5.72116 0 4.63293 -5.69355 0 4.72955 -5.65482 0 4.81572 -5.60841 0 4.8963 -5.55263 0 4.97026 -5.4881 0 5.03684 -5.41592 0 5.14411 -5.25272 0 5.20219 -5.10872 0 5.23431 -4.95711 0 5.23921 -4.80287 0 5.2168 -4.65072 0 5.16821 -4.50547 0 5.09479 -4.3717 0 4.999 -4.25333 0 4.87343 -4.18418 0 4.74668 -4.11591 0 -3.12645 5.87101 0 -3.00451 5.80911 0 -2.87433 5.76999 0 -2.73941 5.75499 0 -2.65235 5.82582 0 -2.56479 5.89563 0 -2.47655 5.96465 0 -2.38742 6.03314 0 -2.2973 6.10123 0 -2.20649 6.16848 0 -2.11483 6.23478 0 -2.02139 6.30076 0 -1.92753 6.36529 0 -1.83353 6.42855 0 -1.76757 6.53139 0 -1.72165 6.6443 0 -1.73456 6.78731 0 -1.75194 6.97299 0 -1.85166 7.14246 0 -1.98676 7.28707 0 -2.15031 7.39955 0 -2.32777 7.47224 0 -2.51595 7.50569 0 -2.70778 7.498 0 -2.89445 7.44879 0 -3.06574 7.36029 0 -3.21394 7.23671 0 -3.33258 7.08439 0 -3.41657 6.91071 0 -3.45855 6.74222 0 -3.46746 6.56992 0 -3.39788 6.43012 0 -3.3287 6.29049 0 -3.26018 6.15048 0 -3.19282 6.01083 0 -2.76085 -2.21046 0 -2.85534 -2.079 0 -2.97004 -1.96725 0 -3.09963 -1.8822 0 -3.22332 -1.89755 0 -3.34651 -1.91396 0 -3.46897 -1.92889 0 -3.5917 -1.94206 0 -3.71616 -1.95449 0 -3.84229 -1.96663 0 -3.97004 -1.97786 0 -4.09908 -1.98779 0 -4.22794 -1.99724 0 -4.35639 -2.00707 0 -4.44 -2.0931 0 -4.5027 -2.19486 0 -4.52468 -2.32266 0 -4.54678 -2.48163 0 -4.56334 -2.61521 0 -4.57727 -2.74868 0 -4.58792 -2.88224 0 -4.53252 -3.02448 0 -4.42512 -3.09392 0 -4.31634 -3.15854 0 -4.20713 -3.22054 0 -4.09759 -3.28072 0 -3.98771 -3.33932 0 -3.87676 -3.39256 0 -3.71751 -3.46642 0 -3.53705 -3.39292 0 -3.46219 -3.31873 0 -3.38662 -3.24614 0 -3.3101 -3.17347 0 -3.23196 -3.10075 0 -3.15345 -3.02777 0 -3.07286 -2.95591 0 -2.99085 -2.8855 0 -2.90904 -2.81653 0 -2.82595 -2.75094 0 -2.74203 -2.68661 0 -2.68476 -2.5643 0 -2.67297 -2.43585 0 -2.70785 -2.32018 0 -2.89198 1.64643 0 -2.77878 1.6232 0 -2.67376 1.65123 0 -2.57419 1.69772 0 -2.50888 1.77091 0 -2.44205 1.84571 0 -2.374 1.91981 0 -2.30462 1.99222 0 -2.23385 2.06352 0 -2.16085 2.13486 0 -2.08634 2.2044 0 -2.01124 2.27158 0 -1.93692 2.33589 0 -1.90648 2.43678 0 -1.89515 2.53898 0 -1.90222 2.64209 0 -1.92554 2.73948 0 -1.96109 2.88799 0 -1.99733 3.03866 0 -2.03357 3.18929 0 -2.11021 3.28028 0 -2.20629 3.34038 0 -2.3032 3.40026 0 -2.39977 3.46109 0 -2.49723 3.52169 0 -2.61866 3.54905 0 -2.75205 3.49371 0 -2.88636 3.43226 0 -3.01941 3.36773 0 -3.12451 3.31498 0 -3.22979 3.26088 0 -3.30129 3.15807 0 -3.35474 3.04588 0 -3.3905 2.92757 0 -3.40795 2.80474 0 -3.3688 2.70794 0 -3.32863 2.61192 0 -3.2915 2.51472 0 -3.25406 2.41633 0 -3.21695 2.31725 0 -3.18214 2.21756 0 -3.14729 2.11716 0 -3.11562 2.01465 0