<?xml version="1.0"?>
<VTKFile type="StructuredGrid" version="0.1">
<StructuredGrid WholeExtent="0 100 0 100 0 0">
<Piece Extent="0 100 0 100 0 0">
<Points>
<DataArray type="Float64" NumberOfComponents="3" format="ascii">
-15 -15 0
-15 -14.7 0
-15 -14.4 0
-15 -14.1 0
-15 -13.8 0
-15 -13.5 0
-15 -13.2 0
-15 -12.9 0
-15 -12.6 0
-15 -12.3 0
-15 -12 0
-15 -11.7 0
-15 -11.4 0
-15 -11.1 0
-15 -10.8 0
-15 -10.5 0
-15 -10.2 0
-15 -9.9 0
-15 -9.6 0
-15 -9.3 0
-15 -9 0
-15 -8.7 0
-15 -8.4 0
-15 -8.1 0
-15 -7.8 0
-15 -7.5 0
-15 -7.2 0
-15 -6.9 0
-15 -6.6 0
-15 -6.3 0
-15 -6 0
-15 -5.7 0
-15 -5.4 0
-15 -5.1 0
-15 -4.8 0
-15 -4.5 0
-15 -4.2 0
-15 -3.9 0
-15 -3.6 0
-15 -3.3 0
-15 -3 0
-15 -2.7 0
-15 -2.4 0
-15 -2.1 0
-15 -1.8 0
-15 -1.5 0
-15 -1.2 0
-15 -0.9 0
-15 -0.6 0
-15 -0.3 0
-15 0 0
-15 0.3 0
-15 0.6 0
-15 0.9 0
-15 1.2 0
-15 1.5 0
-15 1.8 0
-15 2.1 0
-15 2.4 0
-15 2.7 0
-15 3 0
-15 3.3 0
-15 3.6 0
-15 3.9 0
-15 4.2 0
-15 4.5 0
-15 4.8 0
-15 5.1 0
-15 5.4 0
-15 5.7 0
-15 6 0
-15 6.3 0
-15 6.6 0
-15 6.9 0
-15 7.2 0
-15 7.5 0
-15 7.8 0
-15 8.1 0
-15 8.4 0
-15 8.7 0
-15 9 0
-15 9.3 0
-15 9.6 0
-15 9.9 0
-15 10.2 0
-15 10.5 0
-15 10.8 0
-15 11.1 0
-15 11.4 0
-15 11.7 0
-15 12 0
-15 12.3 0
-15 12.6 0
-15 12.9 0
-15 13.2 0
-15 13.5 0
-15 13.8 0
-15 14.1 0
-15 14.4 0
-15 14.7 0
-15 15 0
-14.7 -15 0
-14.7 -14.7 0
-14.7 -14.4 0
-14.7 -14.1 0
-14.7 -13.8 0
-14.7 -13.5 0
-14.7 -13.2 0
-14.7 -12.9 0
-14.7 -12.6 0
-14.7 -12.3 0
-14.7 -12 0
-14.7 -11.7 0
-14.7 -11.4 0
-14.7 -11.1 0
-14.7 -10.8 0
-14.7 -10.5 0
-14.7 -10.2 0
-14.7 -9.9 0
-14.7 -9.6 0
-14.7 -9.3 0
-14.7 -9 0
-14.7 -8.7 0
-14.7 -8.4 0
-14.7 -8.1 0
-14.7 -7.8 0
-14.7 -7.5 0
-14.7 -7.2 0
-14.7 -6.9 0
-14.7 -6.6 0
-14.7 -6.3 0
-14.7 -6 0
-14.7 -5.7 0
-14.7 -5.4 0
-14.7 -5.1 0
-14.7 -4.8 0
-14.7 -4.5 0
-14.7 -4.2 0
-14.7 -3.9 0
-14.7 -3.6 0
-14.7 -3.3 0
-14.7 -3 0
-14.7 -2.7 0
-14.7 -2.4 0
-14.7 -2.1 0
-14.7 -1.8 0
-14.7 -1.5 0
-14.7 -1.2 0
-14.7 -0.9 0
-14.7 -0.6 0
-14.7 -0.3 0
-14.7 0 0
-14.7 0.3 0
-14.7 0.6 0
-14.7 0.9 0
-14.7 1.2 0
-14.7 1.5 0
-14.7 1.8 0
-14.7 2.1 0
-14.7 2.4 0
-14.7 2.7 0
-14.7 3 0
-14.7 3.3 0
-14.7 3.6 0
-14.7 3.9 0
-14.7 4.2 0
-14.7 4.5 0
-14.7 4.8 0
-14.7 5.1 0
-14.7 5.4 0
-14.7 5.7 0
-14.7 6 0
-14.7 6.3 0
-14.7 6.6 0
-14.7 6.9 0
-14.7 7.2 0
-14.7 7.5 0
-14.7 7.8 0
-14.7 8.1 0
-14.7 8.4 0
-14.7 8.7 0
-14.7 9 0
-14.7 9.3 0
-14.7 9.6 0
-14.7 9.9 0
-14.7 10.2 0
-14.7 10.5 0
-14.7 10.8 0
-14.7 11.1 0
-14.7 11.4 0
-14.7 11.7 0
-14.7 12 0
-14.7 12.3 0
-14.7 12.6 0
-14.7 12.9 0
-14.7 13.2 0
-14.7 13.5 0
-14.7 13.8 0
-14.7 14.1 0
-14.7 14.4 0
-14.7 14.7 0
-14.7 15 0
-14.4 -15 0
-14.4 -14.7 0
-14.4 -14.4 0
-14.4 -14.1 0
-14.4 -13.8 0
-14.4 -13.5 0
-14.4 -13.2 0
-14.4 -12.9 0
-14.4 -12.6 0
-14.4 -12.3 0
-14.4 -12 0
-14.4 -11.7 0
-14.4 -11.4 0
-14.4 -11.1 0
-14.4 -10.8 0
-14.4 -10.5 0
-14.4 -10.2 0
-14.4 -9.9 0
-14.4 -9.6 0
-14.4 -9.3 0
-14.4 -9 0
-14.4 -8.7 0
-14.4 -8.4 0
-14.4 -8.1 0
-14.4 -7.8 0
-14.4 -7.5 0
-14.4 -7.2 0
-14.4 -6.9 0
-14.4 -6.6 0
-14.4 -6.3 0
-14.4 -6 0
-14.4 -5.7 0
-14.4 -5.4 0
-14.4 -5.1 0
-14.4 -4.8 0
-14.4 -4.5 0
-14.4 -4.2 0
-14.4 -3.9 0
-14.4 -3.6 0
-14.4 -3.3 0
-14.4 -3 0
-14.4 -2.7 0
-14.4 -2.4 0
-14.4 -2.1 0
-14.4 -1.8 0
-14.4 -1.5 0
-14.4 -1.2 0
-14.4 -0.9 0
-14.4 -0.6 0
-14.4 -0.3 0
-14.4 0 0
-14.4 0.3 0
-14.4 0.6 0
-14.4 0.9 0
-14.4 1.2 0
-14.4 1.5 0
-14.4 1.8 0
-14.4 2.1 0
-14.4 2.4 0
-14.4 2.7 0
-14.4 3 0
-14.4 3.3 0
-14.4 3.6 0
-14.4 3.9 0
-14.4 4.2 0
-14.4 4.5 0
-14.4 4.8 0
-14.4 5.1 0
-14.4 5.4 0
-14.4 5.7 0
-14.4 6 0
-14.4 6.3 0
-14.4 6.6 0
-14.4 6.9 0
-14.4 7.2 0
-14.4 7.5 0
-14.4 7.8 0
-14.4 8.1 0
-14.4 8.4 0
-14.4 8.7 0
-14.4 9 0
-14.4 9.3 0
-14.4 9.6 0
-14.4 9.9 0
-14.4 10.2 0
-14.4 10.5 0
-14.4 10.8 0
-14.4 11.1 0
-14.4 11.4 0
-14.4 11.7 0
-14.4 12 0
-14.4 12.3 0
-14.4 12.6 0
-14.4 12.9 0
-14.4 13.2 0
-14.4 13.5 0
-14.4 13.8 0
-14.4 14.1 0
-14.4 14.4 0
-14.4 14.7 0
-14.4 15 0
-14.1 -15 0
-14.1 -14.7 0
-14.1 -14.4 0
-14.1 -14.1 0
-14.1 -13.8 0
-14.1 -13.5 0
-14.1 -13.2 0
-14.1 -12.9 0
-14.1 -12.6 0
-14.1 -12.3 0
-14.1 -12 0
-14.1 -11.7 0
-14.1 -11.4 0
-14.1 -11.1 0
-14.1 -10.8 0
-14.1 -10.5 0
-14.1 -10.2 0
-14.1 -9.9 0
-14.1 -9.6 0
-14.1 -9.3 0
-14.1 -9 0
-14.1 -8.7 0
-14.1 -8.4 0
-14.1 -8.1 0
-14.1 -7.8 0
-14.1 -7.5 0
-14.1 -7.2 0
-14.1 -6.9 0
-14.1 -6.6 0
-14.1 -6.3 0
-14.1 -6 0
-14.1 -5.7 0
-14.1 -5.4 0
-14.1 -5.1 0
-14.1 -4.8 0
-14.1 -4.5 0
-14.1 -4.2 0
-14.1 -3.9 0
-14.1 -3.6 0
-14.1 -3.3 0
-14.1 -3 0
-14.1 -2.7 0
-14.1 -2.4 0
-14.1 -2.1 0
-14.1 -1.8 0
-14.1 -1.5 0
-14.1 -1.2 0
-14.1 -0.9 0
-14.1 -0.6 0
-14.1 -0.3 0
-14.1 0 0
-14.1 0.3 0
-14.1 0.6 0
-14.1 0.9 0
-14.1 1.2 0
-14.1 1.5 0
-14.1 1.8 0
-14.1 2.1 0
-14.1 2.4 0
-14.1 2.7 0
-14.1 3 0
-14.1 3.3 0
-14.1 3.6 0
-14.1 3.9 0
-14.1 4.2 0
-14.1 4.5 0
-14.1 4.8 0
-14.1 5.1 0
-14.1 5.4 0
-14.1 5.7 0
-14.1 6 0
-14.1 6.3 0
-14.1 6.6 0
-14.1 6.9 0
-14.1 7.2 0
-14.1 7.5 0
-14.1 7.8 0
-14.1 8.1 0
-14.1 8.4 0
-14.1 8.7 0
-14.1 9 0
-14.1 9.3 0
-14.1 9.6 0
-14.1 9.9 0
-14.1 10.2 0
-14.1 10.5 0
-14.1 10.8 0
-14.1 11.1 0
-14.1 11.4 0
-14.1 11.7 0
-14.1 12 0
-14.1 12.3 0
-14.1 12.6 0
-14.1 12.9 0
-14.1 13.2 0
-14.1 13.5 0
-14.1 13.8 0
-14.1 14.1 0
-14.1 14.4 0
-14.1 14.7 0
-14.1 15 0
-13.8 -15 0
-13.8 -14.7 0
-13.8 -14.4 0
-13.8 -14.1 0
-13.8 -13.8 0
-13.8 -13.5 0
-13.8 -13.2 0
-13.8 -12.9 0
-13.8 -12.6 0
-13.8 -12.3 0
-13.8 -12 0
-13.8 -11.7 0
-13.8 -11.4 0
-13.8 -11.1 0
-13.8 -10.8 0
-13.8 -10.5 0
-13.8 -10.2 0
-13.8 -9.9 0
-13.8 -9.6 0
-13.8 -9.3 0
-13.8 -9 0
-13.8 -8.7 0
-13.8 -8.4 0
-13.8 -8.1 0
-13.8 -7.8 0
-13.8 -7.5 0
-13.8 -7.2 0
-13.8 -6.9 0
-13.8 -6.6 0
-13.8 -6.3 0
-13.8 -6 0
-13.8 -5.7 0
-13.8 -5.4 0
-13.8 -5.1 0
-13.8 -4.8 0
-13.8 -4.5 0
-13.8 -4.2 0
-13.8 -3.9 0
-13.8 -3.6 0
-13.8 -3.3 0
-13.8 -3 0
-13.8 -2.7 0
-13.8 -2.4 0
-13.8 -2.1 0
-13.8 -1.8 0
-13.8 -1.5 0
-13.8 -1.2 0
-13.8 -0.9 0
-13.8 -0.6 0
-13.8 -0.3 0
-13.8 0 0
-13.8 0.3 0
-13.8 0.6 0
-13.8 0.9 0
-13.8 1.2 0
-13.8 1.5 0
-13.8 1.8 0
-13.8 2.1 0
-13.8 2.4 0
-13.8 2.7 0
-13.8 3 0
-13.8 3.3 0
-13.8 3.6 0
-13.8 3.9 0
-13.8 4.2 0
-13.8 4.5 0
-13.8 4.8 0
-13.8 5.1 0
-13.8 5.4 0
-13.8 5.7 0
-13.8 6 0
-13.8 6.3 0
-13.8 6.6 0
-13.8 6.9 0
-13.8 7.2 0
-13.8 7.5 0
-13.8 7.8 0
-13.8 8.1 0
-13.8 8.4 0
-13.8 8.7 0
-13.8 9 0
-13.8 9.3 0
-13.8 9.6 0
-13.8 9.9 0
-13.8 10.2 0
-13.8 10.5 0
-13.8 10.8 0
-13.8 11.1 0
-13.8 11.4 0
-13.8 11.7 0
-13.8 12 0
-13.8 12.3 0
-13.8 12.6 0
-13.8 12.9 0
-13.8 13.2 0
-13.8 13.5 0
-13.8 13.8 0
-13.8 14.1 0
-13.8 14.4 0
-13.8 14.7 0
-13.8 15 0
-13.5 -15 0
-13.5 -14.7 0
-13.5 -14.4 0
-13.5 -14.1 0
-13.5 -13.8 0
-13.5 -13.5 0
-13.5 -13.2 0
-13.5 -12.9 0
-13.5 -12.6 0
-13.5 -12.3 0
-13.5 -12 0
-13.5 -11.7 0
-13.5 -11.4 0
-13.5 -11.1 0
-13.5 -10.8 0
-13.5 -10.5 0
-13.5 -10.2 0
-13.5 -9.9 0
-13.5 -9.6 0
-13.5 -9.3 0
-13.5 -9 0
-13.5 -8.7 0
-13.5 -8.4 0
-13.5 -8.1 0
-13.5 -7.8 0
-13.5 -7.5 0
-13.5 -7.2 0
-13.5 -6.9 0
-13.5 -6.6 0
-13.5 -6.3 0
-13.5 -6 0
-13.5 -5.7 0
-13.5 -5.4 0
-13.5 -5.1 0
-13.5 -4.8 0
-13.5 -4.5 0
-13.5 -4.2 0
-13.5 -3.9 0
-13.5 -3.6 0
-13.5 -3.3 0
-13.5 -3 0
-13.5 -2.7 0
-13.5 -2.4 0
-13.5 -2.1 0
-13.5 -1.8 0
-13.5 -1.5 0
-13.5 -1.2 0
-13.5 -0.9 0
-13.5 -0.6 0
-13.5 -0.3 0
-13.5 0 0
-13.5 0.3 0
-13.5 0.6 0
-13.5 0.9 0
-13.5 1.2 0
-13.5 1.5 0
-13.5 1.8 0
-13.5 2.1 0
-13.5 2.4 0
-13.5 2.7 0
-13.5 3 0
-13.5 3.3 0
-13.5 3.6 0
-13.5 3.9 0
-13.5 4.2 0
-13.5 4.5 0
-13.5 4.8 0
-13.5 5.1 0
-13.5 5.4 0
-13.5 5.7 0
-13.5 6 0
-13.5 6.3 0
-13.5 6.6 0
-13.5 6.9 0
-13.5 7.2 0
-13.5 7.5 0
-13.5 7.8 0
-13.5 8.1 0
-13.5 8.4 0
-13.5 8.7 0
-13.5 9 0
-13.5 9.3 0
-13.5 9.6 0
-13.5 9.9 0
-13.5 10.2 0
-13.5 10.5 0
-13.5 10.8 0
-13.5 11.1 0
-13.5 11.4 0
-13.5 11.7 0
-13.5 12 0
-13.5 12.3 0
-13.5 12.6 0
-13.5 12.9 0
-13.5 13.2 0
-13.5 13.5 0
-13.5 13.8 0
-13.5 14.1 0
-13.5 14.4 0
-13.5 14.7 0
-13.5 15 0
-13.2 -15 0
-13.2 -14.7 0
-13.2 -14.4 0
-13.2 -14.1 0
-13.2 -13.8 0
-13.2 -13.5 0
-13.2 -13.2 0
-13.2 -12.9 0
-13.2 -12.6 0
-13.2 -12.3 0
-13.2 -12 0
-13.2 -11.7 0
-13.2 -11.4 0
-13.2 -11.1 0
-13.2 -10.8 0
-13.2 -10.5 0
-13.2 -10.2 0
-13.2 -9.9 0
-13.2 -9.6 0
-13.2 -9.3 0
-13.2 -9 0
-13.2 -8.7 0
-13.2 -8.4 0
-13.2 -8.1 0
-13.2 -7.8 0
-13.2 -7.5 0
-13.2 -7.2 0
-13.2 -6.9 0
-13.2 -6.6 0
-13.2 -6.3 0
-13.2 -6 0
-13.2 -5.7 0
-13.2 -5.4 0
-13.2 -5.1 0
-13.2 -4.8 0
-13.2 -4.5 0
-13.2 -4.2 0
-13.2 -3.9 0
-13.2 -3.6 0
-13.2 -3.3 0
-13.2 -3 0
-13.2 -2.7 0
-13.2 -2.4 0
-13.2 -2.1 0
-13.2 -1.8 0
-13.2 -1.5 0
-13.2 -1.2 0
-13.2 -0.9 0
-13.2 -0.6 0
-13.2 -0.3 0
-13.2 0 0
-13.2 0.3 0
-13.2 0.6 0
-13.2 0.9 0
-13.2 1.2 0
-13.2 1.5 0
-13.2 1.8 0
-13.2 2.1 0
-13.2 2.4 0
-13.2 2.7 0
-13.2 3 0
-13.2 3.3 0
-13.2 3.6 0
-13.2 3.9 0
-13.2 4.2 0
-13.2 4.5 0
-13.2 4.8 0
-13.2 5.1 0
-13.2 5.4 0
-13.2 5.7 0
-13.2 6 0
-13.2 6.3 0
-13.2 6.6 0
-13.2 6.9 0
-13.2 7.2 0
-13.2 7.5 0
-13.2 7.8 0
-13.2 8.1 0
-13.2 8.4 0
-13.2 8.7 0
-13.2 9 0
-13.2 9.3 0
-13.2 9.6 0
-13.2 9.9 0
-13.2 10.2 0
-13.2 10.5 0
-13.2 10.8 0
-13.2 11.1 0
-13.2 11.4 0
-13.2 11.7 0
-13.2 12 0
-13.2 12.3 0
-13.2 12.6 0
-13.2 12.9 0
-13.2 13.2 0
-13.2 13.5 0
-13.2 13.8 0
-13.2 14.1 0
-13.2 14.4 0
-13.2 14.7 0
-13.2 15 0
-12.9 -15 0
-12.9 -14.7 0
-12.9 -14.4 0
-12.9 -14.1 0
-12.9 -13.8 0
-12.9 -13.5 0
-12.9 -13.2 0
-12.9 -12.9 0
-12.9 -12.6 0
-12.9 -12.3 0
-12.9 -12 0
-12.9 -11.7 0
-12.9 -11.4 0
-12.9 -11.1 0
-12.9 -10.8 0
-12.9 -10.5 0
-12.9 -10.2 0
-12.9 -9.9 0
-12.9 -9.6 0
-12.9 -9.3 0
-12.9 -9 0
-12.9 -8.7 0
-12.9 -8.4 0
-12.9 -8.1 0
-12.9 -7.8 0
-12.9 -7.5 0
-12.9 -7.2 0
-12.9 -6.9 0
-12.9 -6.6 0
-12.9 -6.3 0
-12.9 -6 0
-12.9 -5.7 0
-12.9 -5.4 0
-12.9 -5.1 0
-12.9 -4.8 0
-12.9 -4.5 0
-12.9 -4.2 0
-12.9 -3.9 0
-12.9 -3.6 0
-12.9 -3.3 0
-12.9 -3 0
-12.9 -2.7 0
-12.9 -2.4 0
-12.9 -2.1 0
-12.9 -1.8 0
-12.9 -1.5 0
-12.9 -1.2 0
-12.9 -0.9 0
-12.9 -0.6 0
-12.9 -0.3 0
-12.9 0 0
-12.9 0.3 0
-12.9 0.6 0
-12.9 0.9 0
-12.9 1.2 0
-12.9 1.5 0
-12.9 1.8 0
-12.9 2.1 0
-12.9 2.4 0
-12.9 2.7 0
-12.9 3 0
-12.9 3.3 0
-12.9 3.6 0
-12.9 3.9 0
-12.9 4.2 0
-12.9 4.5 0
-12.9 4.8 0
-12.9 5.1 0
-12.9 5.4 0
-12.9 5.7 0
-12.9 6 0
-12.9 6.3 0
-12.9 6.6 0
-12.9 6.9 0
-12.9 7.2 0
-12.9 7.5 0
-12.9 7.8 0
-12.9 8.1 0
-12.9 8.4 0
-12.9 8.7 0
-12.9 9 0
-12.9 9.3 0
-12.9 9.6 0
-12.9 9.9 0
[...]
<PointData Scalars="scalars">
<DataArray type="Float64" Name="u" NumberOfComponents="1" format="ascii">
0 0 0 0 0 0 0 0 0 0 0 0 0 0 0 0 0 0 0 0 0 0 0 0 0 0 0 0 0 0 0 0 0 0 0 0 0 0 0 0 0 0 0 0 0 0 0 0 0 0 0 0 0 0 0 0 0 0 0 0 0 0 0 0 0 0 0 0 0 0 0 0 0 0 0 0 0 0 0 0 0 0 0 0 0 0 0 0 0 0 0 0 0 0 0 0 0 0 0 0 0 
1.09286e-14 1.18384e-14 1.46939e-14 1.98865e-14 2.81148e-14 4.04571e-14 5.84791e-14 8.43853e-14 1.21221e-13 1.73137e-13 2.45731e-13 3.46479e-13 4.85276e-13 6.75097e-13 9.32808e-13 1.28013e-12 1.74479e-12 2.36184e-12 3.17515e-12 4.23912e-12 5.62054e-12 7.4005e-12 9.67643e-12 1.25641e-11 1.61995e-11 2.07402e-11 2.6367e-11 3.32837e-11 4.17175e-11 5.1917e-11 6.41499e-11 7.86989e-11 9.58556e-11 1.15913e-10 1.39157e-10 1.65853e-10 1.96237e-10 2.30497e-10 2.68763e-10 3.11088e-10 3.57436e-10 4.07666e-10 4.61525e-10 5.18634e-10 5.78487e-10 6.40452e-10 7.03772e-10 7.67578e-10 8.30907e-10 8.92719e-10 9.5193e-10 1.00744e-09 1.05815e-09 1.10304e-09 1.14116e-09 1.17168e-09 1.19393e-09 1.20739e-09 1.21178e-09 1.20698e-09 1.19311e-09 1.17048e-09 1.1396e-09 1.10115e-09 1.05597e-09 1.00501e-09 9.49307e-10 8.89947e-10 8.28034e-10 7.64652e-10 7.00838e-10 6.37552e-10 5.75657e-10 5.15907e-10 4.58927e-10 4.0522e-10 3.55155e-10 3.08985e-10 2.66842e-10 2.28759e-10 1.9468e-10 1.64471e-10 1.37942e-10 1.14855e-10 9.49426e-11 7.79195e-11 6.34924e-11 5.13703e-11 4.12717e-11 3.29308e-11 2.61013e-11 2.05592e-11 1.61046e-11 1.25621e-11 9.78033e-12 7.63181e-12 6.01139e-12 4.83525e-12 4.03965e-12 3.57991e-12 3.42959e-12 
2.36268e-14 2.55946e-14 3.17705e-14 4.30019e-14 6.08007e-14 8.75005e-14 1.26491e-13 1.82543e-13 2.62252e-13 3.74606e-13 5.31727e-13 7.49811e-13 1.05029e-12 1.46128e-12 2.01933e-12 2.77153e-12 3.77797e-12 5.11465e-12 6.87672e-12 9.18219e-12 1.21759e-11 1.60339e-11 2.09676e-11 2.72283e-11 3.51112e-11 4.49588e-11 5.71634e-11 7.21683e-11 9.04669e-11 1.126e-10 1.3915e-10 1.70731e-10 2.07978e-10 2.5153e-10 3.02007e-10 3.59991e-10 4.25994e-10 5.00428e-10 5.83577e-10 6.75559e-10 7.76297e-10 8.85489e-10 1.00258e-09 1.12676e-09 1.25692e-09 1.39168e-09 1.52941e-09 1.66821e-09 1.80598e-09 1.94046e-09 2.0693e-09 2.19008e-09 2.30045e-09 2.39814e-09 2.4811e-09 2.54753e-09 2.59594e-09 2.62526e-09 2.6348e-09 2.62436e-09 2.59417e-09 2.54491e-09 2.4777e-09 2.39403e-09 2.29571e-09 2.18481e-09 2.0636e-09 1.93444e-09 1.79973e-09 1.66185e-09 1.52303e-09 1.38538e-09 1.25077e-09 1.12084e-09 9.96942e-10 8.80176e-10 7.71347e-10 6.70993e-10 5.79408e-10 4.96657e-10 4.22616e-10 3.56993e-10 2.99371e-10 2.49234e-10 2.05998e-10 1.6904e-10 1.37724e-10 1.11414e-10 8.95002e-11 7.1403e-11 5.65871e-11 4.4566e-11 3.49051e-11 2.72232e-11 2.11919e-11 1.65341e-11 1.30216e-11 1.04723e-11 8.74805e-12 7.75172e-12 7.42595e-12 
4.00989e-14 4.34406e-14 5.39292e-14 7.3005e-14 1.03238e-13 1.48597e-13 2.14843e-13 3.10095e-13 4.45567e-13 6.36553e-13 9.03686e-13 1.27453e-12 1.78558e-12 2.48471e-12 3.4342e-12 4.71425e-12 6.42731e-12 8.70292e-12 1.17034e-11 1.56299e-11 2.07298e-11 2.73034e-11 3.57117e-11 4.6384e-11 5.98246e-11 7.66191e-11 9.7438e-11 1.2304e-10 1.54269e-10 1.9205e-10 2.37382e-10 2.91317e-10 3.54944e-10 4.29358e-10 5.15625e-10 6.14744e-10 7.27596e-10 8.54894e-10 9.97127e-10 1.1545e-09 1.3269e-09 1.5138e-09 1.71426e-09 1.92689e-09 2.1498e-09 2.38065e-09 2.6166e-09 2.85443e-09 3.09054e-09 3.32104e-09 3.54189e-09 3.74895e-09 3.93818e-09 4.1057e-09 4.24796e-09 4.36187e-09 4.44491e-09 4.49518e-09 4.51155e-09 4.49364e-09 4.44186e-09 4.35739e-09 4.24214e-09 4.09866e-09 3.93007e-09 3.73993e-09 3.53213e-09 3.31073e-09 3.07986e-09 2.84356e-09 2.6057e-09 2.36987e-09 2.13929e-09 1.91676e-09 1.70462e-09 1.50472e-09 1.31844e-09 1.1467e-09 9.90006e-10 8.48455e-10 7.21829e-10 6.09627e-10 5.11127e-10 4.2544e-10 3.51566e-10 2.88434e-10 2.3495e-10 1.90028e-10 1.5262e-10 1.21734e-10 9.6455e-11 7.59487e-11 5.94722e-11 4.63736e-11 3.60917e-11 2.81528e-11 2.21669e-11 1.78232e-11 1.48855e-11 1.31882e-11 1.26332e-11 
6.28417e-14 6.80829e-14 8.45343e-14 1.14458e-13 1.61889e-13 2.33061e-13 3.37027e-13 4.86541e-13 6.99232e-13 9.99143e-13 1.41872e-12 2.00133e-12 2.80438e-12 3.90326e-12 5.39598e-12 7.40892e-12 1.01034e-11 1.36838e-11 1.84057e-11 2.45869e-11 3.26172e-11 4.29709e-11 5.62181e-11 7.30371e-11 9.42249e-11 1.20707e-10 1.53546e-10 1.9394e-10 2.43227e-10 3.02875e-10 3.74463e-10 4.59664e-10 5.60205e-10 6.77826e-10 8.14224e-10 9.70988e-10 1.14952e-09 1.35097e-09 1.57612e-09 1.8253e-09 2.09834e-09 2.39443e-09 2.71209e-09 3.0491e-09 3.40251e-09 3.76857e-09 4.14281e-09 4.5201e-09 4.89472e-09 5.26052e-09 5.61105e-09 5.93976e-09 6.24018e-09 6.50616e-09 6.73207e-09 6.91297e-09 7.04484e-09 7.12469e-09 7.15069e-09 7.12225e-09 7.04002e-09 6.90587e-09 6.72284e-09 6.495e-09 6.22732e-09 5.92547e-09 5.5956e-09 5.2442e-09 4.87781e-09 4.50288e-09 4.12555e-09 3.75152e-09 3.38588e-09 3.03309e-09 2.69684e-09 2.38008e-09 2.08497e-09 1.81298e-09 1.56487e-09 1.3408e-09 1.14042e-09 9.6291e-10 8.07124e-10 6.71644e-10 5.54875e-10 4.55116e-10 3.70628e-10 2.99686e-10 2.40628e-10 1.91882e-10 1.51995e-10 1.19649e-10 9.36671e-11 7.30173e-11 5.68122e-11 4.43028e-11 3.48729e-11 2.80313e-11 2.3405e-11 2.07323e-11 1.98585e-11 
9.51509e-14 1.03094e-13 1.28028e-13 1.73385e-13 2.45292e-13 3.53208e-13 5.10883e-13 7.37685e-13 1.0604e-12 1.51556e-12 2.15249e-12 3.03714e-12 4.25686e-12 5.92632e-12 8.19479e-12 1.12547e-11 1.53519e-11 2.07976e-11 2.7982e-11 3.73894e-11 4.96151e-11 6.5383e-11 8.55641e-11 1.11195e-10 1.43495e-10 1.83879e-10 2.33973e-10 2.95615e-10 3.70853e-10 4.61939e-10 5.71297e-10 7.01495e-10 8.55188e-10 1.03505e-09 1.2437e-09 1.48359e-09 1.75689e-09 2.06536e-09 2.41023e-09 2.79205e-09 3.21055e-09 3.66453e-09 4.15171e-09 4.66874e-09 5.21105e-09 5.77293e-09 6.34751e-09 6.9269e-09 7.50233e-09 8.06432e-09 8.60295e-09 9.10812e-09 9.56989e-09 9.97878e-09 1.03261e-08 1.06043e-08 1.0807e-08 1.09298e-08 1.09698e-08 1.09261e-08 1.07996e-08 1.05934e-08 1.03119e-08 9.96167e-09 9.55018e-09 9.0862e-09 8.57925e-09 8.03929e-09 7.47641e-09 6.90052e-09 6.32107e-09 5.74681e-09 5.18559e-09 4.64422e-09 4.12838e-09 3.64257e-09 3.19011e-09 2.77321e-09 2.39304e-09 2.04982e-09 1.74298e-09 1.47125e-09 1.23286e-09 1.02562e-09 8.47054e-10 6.94555e-10 5.65446e-10 4.57076e-10 3.66889e-10 2.92476e-10 2.31608e-10 1.82263e-10 1.4264e-10 1.11159e-10 8.6461e-11 6.74011e-11 5.30368e-11 4.26175e-11 3.55731e-11 3.1504e-11 3.01737e-11 
1.41502e-13 1.53327e-13 1.90447e-13 2.57979e-13 3.65058e-13 5.25793e-13 7.60692e-13 1.09866e-12 1.57967e-12 2.25827e-12 3.20815e-12 4.52782e-12 6.34786e-12 8.83977e-12 1.22268e-11 1.67969e-11 2.29183e-11 3.10571e-11 4.17981e-11 5.58673e-11 7.41577e-11 9.77558e-11 1.2797e-10 1.66356e-10 2.14749e-10 2.75276e-10 3.50385e-10 4.42843e-10 5.55738e-10 6.92464e-10 8.56682e-10 1.05227e-09 1.28324e-09 1.55365e-09 1.86745e-09 2.22837e-09 2.63971e-09 3.10417e-09 3.62362e-09 4.19893e-09 4.82972e-09 5.51421e-09 6.24903e-09 7.0291e-09 7.84757e-09 8.69581e-09 9.56347e-09 1.04386e-08 1.1308e-08 1.21573e-08 1.29714e-08 1.37351e-08 1.44333e-08 1.50516e-08 1.55769e-08 1.59976e-08 1.63044e-08 1.64901e-08 1.65506e-08 1.64845e-08 1.62932e-08 1.59812e-08 1.55555e-08 1.50258e-08 1.44035e-08 1.3702e-08 1.29356e-08 1.21195e-08 1.12689e-08 1.03989e-08 9.52362e-09 8.65646e-09 7.80922e-09 6.99218e-09 6.21391e-09 5.48117e-09 4.79896e-09 4.17059e-09 3.59777e-09 3.08081e-09 2.61881e-09 2.20985e-09 1.85118e-09 1.53949e-09 1.27104e-09 1.04186e-09 8.47909e-10 6.85174e-10 5.49796e-10 4.38138e-10 3.46839e-10 2.72852e-10 2.13462e-10 1.66293e-10 1.29299e-10 1.00759e-10 7.92565e-11 6.3663e-11 5.31222e-11 4.70343e-11 4.50442e-11 
2.08041e-13 2.25444e-13 2.80081e-13 3.79493e-13 5.3715e-13 7.73855e-13 1.11986e-12 1.61781e-12 2.32671e-12 3.3271e-12 4.72782e-12 6.67443e-12 9.35995e-12 1.3038e-11 1.80389e-11 2.47889e-11 3.38332e-11 4.58624e-11 6.17433e-11 8.25527e-11 1.09616e-10 1.44545e-10 1.89285e-10 2.46148e-10 3.17861e-10 4.07594e-10 5.18989e-10 6.56169e-10 8.23742e-10 1.02677e-09 1.27073e-09 1.5614e-09 1.90481e-09 2.30701e-09 2.77396e-09 3.31123e-09 3.92381e-09 4.61577e-09 5.38997e-09 6.24774e-09 7.18861e-09 8.20994e-09 9.30675e-09 1.04715e-08 1.1694e-08 1.29614e-08 1.42582e-08 1.55665e-08 1.68666e-08 1.81368e-08 1.93548e-08 2.04976e-08 2.15426e-08 2.24681e-08 2.32545e-08 2.38844e-08 2.43437e-08 2.46219e-08 2.47125e-08 2.46134e-08 2.4327e-08 2.38598e-08 2.32225e-08 2.24295e-08 2.14981e-08 2.04482e-08 1.93014e-08 1.80804e-08 1.68082e-08 1.55071e-08 1.41987e-08 1.29027e-08 1.16368e-08 1.04165e-08 9.25442e-09 8.16072e-09 7.14281e-09 6.20557e-09 5.35151e-09 4.58104e-09 3.89275e-09 3.2837e-09 2.74979e-09 2.28599e-09 1.8867e-09 1.54596e-09 1.25771e-09 1.01596e-09 8.14931e-10 6.49192e-10 5.13728e-10 4.03994e-10 3.15945e-10 2.46038e-10 1.91232e-10 1.48964e-10 1.17128e-10 9.40468e-11 7.84476e-11 6.94395e-11 6.6495e-11 
3.03211e-13 3.28604e-13 4.08329e-13 5.53409e-13 7.83531e-13 1.12911e-12 1.63439e-12 2.36176e-12 3.39755e-12 4.8597e-12 6.90756e-12 9.75445e-12 1.36833e-11 1.90659e-11 2.6387e-11 3.62722e-11 4.95221e-11 6.71514e-11 9.04341e-11 1.20954e-10 1.60662e-10 2.11932e-10 2.77627e-10 3.61161e-10 4.66552e-10 5.98481e-10 7.62328e-10 9.6419e-10 1.21088e-09 1.5099e-09 1.86936e-09 2.29784e-09 2.80427e-09 3.39768e-09 4.08691e-09 4.8803e-09 5.78527e-09 6.80794e-09 7.95265e-09 9.22146e-09 1.06137e-08 1.21257e-08 1.375e-08 1.54755e-08 1.72873e-08 1.91661e-08 2.10892e-08 2.30301e-08 2.49591e-08 2.68445e-08 2.86527e-08 3.03496e-08 3.19016e-08 3.32765e-08 3.44447e-08 3.53807e-08 3.60631e-08 3.64765e-08 3.66111e-08 3.64639e-08 3.60383e-08 3.53441e-08 3.43973e-08 3.32191e-08 3.18355e-08 3.02763e-08 2.85735e-08 2.67609e-08 2.48726e-08 2.2942e-08 2.10011e-08 1.90792e-08 1.72026e-08 1.53941e-08 1.36726e-08 1.20529e-08 1.05461e-08 9.15916e-09 7.89587e-09 6.75669e-09 5.73945e-09 4.8397e-09 4.05129e-09 3.36671e-09 2.7776e-09 2.2751e-09 1.8502e-09 1.494e-09 1.19792e-09 9.53928e-10 7.54588e-10 5.93179e-10 4.63719e-10 3.60975e-10 2.80455e-10 2.18378e-10 1.71635e-10 1.37756e-10 1.14865e-10 1.01647e-10 9.7327e-11 
4.38579e-13 4.75351e-13 5.9081e-13 8.00946e-13 1.13432e-12 1.63507e-12 2.36742e-12 3.42195e-12 4.92408e-12 7.04517e-12 1.00169e-11 1.41495e-11 1.98545e-11 2.76735e-11 3.8312e-11 5.26818e-11 7.19499e-11 9.75965e-11 1.31481e-10 1.75916e-10 2.33751e-10 3.08458e-10 4.04226e-10 5.26048e-10 6.79816e-10 8.72388e-10 1.11166e-09 1.40657e-09 1.76715e-09 2.20441e-09 2.73029e-09 3.35745e-09 4.09905e-09 4.96842e-09 5.97863e-09 7.14204e-09 8.4697e-09 9.97071e-09 1.16516e-08 1.35155e-08 1.55616e-08 1.77846e-08 2.01737e-08 2.27128e-08 2.53797e-08 2.81464e-08 3.09791e-08 3.3839e-08 3.66823e-08 3.9462e-08 4.21286e-08 4.46317e-08 4.69214e-08 4.89502e-08 5.06744e-08 5.20559e-08 5.30633e-08 5.36735e-08 5.38723e-08 5.36549e-08 5.30266e-08 5.20019e-08 5.06043e-08 4.88655e-08 4.68239e-08 4.45234e-08 4.20117e-08 3.93387e-08 3.65547e-08 3.37093e-08 3.08494e-08 2.80184e-08 2.52551e-08 2.2593e-08 2.00599e-08 1.76777e-08 1.54623e-08 1.34241e-08 1.15683e-08 9.89557e-09 8.40255e-09 7.0826e-09 5.92648e-09 4.9231e-09 4.06004e-09 3.32421e-09 2.7023e-09 2.18117e-09 1.74822e-09 1.39158e-09 1.10035e-09 8.64634e-10 6.75657e-10 5.25741e-10 4.08299e-10 3.17789e-10 2.4966e-10 2.00294e-10 1.66945e-10 1.47693e-10 1.41401e-10 
6.29885e-13 6.82759e-13 8.48789e-13 1.15101e-12 1.63056e-12 2.35105e-12 3.40505e-12 4.92317e-12 7.08632e-12 1.01418e-11 1.4424e-11 2.03811e-11 2.86077e-11 3.98867e-11 5.52386e-11 7.59828e-11 1.03809e-10 1.40862e-10 1.89836e-10 2.54086e-10 3.37747e-10 4.45862e-10 5.84515e-10 7.60971e-10 9.838e-10 1.26299e-09 1.61004e-09 2.03802e-09 2.56153e-09 3.19668e-09 3.96092e-09 4.8728e-09 5.9516e-09 7.21688e-09 8.68787e-09 1.03827e-08 1.23178e-08 1.45066e-08 1.69589e-08 1.96794e-08 2.26673e-08 2.59148e-08 2.94065e-08 3.3119e-08 3.70198e-08 4.10683e-08 4.52149e-08 4.94026e-08 5.35674e-08 5.76403e-08 6.15485e-08 6.5218e-08 6.85754e-08 7.15507e-08 7.40797e-08 7.61063e-08 7.75843e-08 7.84795e-08 7.87711e-08 7.84523e-08 7.75304e-08 7.60269e-08 7.39767e-08 7.14263e-08 6.84322e-08 6.5059e-08 6.1377e-08 5.74594e-08 5.33804e-08 4.92125e-08 4.50248e-08 4.08809e-08 3.68376e-08 3.29438e-08 2.92402e-08 2.57586e-08 2.25222e-08 1.9546e-08 1.68374e-08 1.43971e-08 1.222e-08 1.02962e-08 8.612e-09 7.15098e-09 5.8949e-09 4.82452e-09 3.92028e-09 3.16295e-09 2.53405e-09 2.01627e-09 1.59363e-09 1.25172e-09 9.77733e-10 7.6047e-10 5.90339e-10 4.59272e-10 3.6065e-10 2.89209e-10 2.40959e-10 2.13109e-10 2.04008e-10 
8.98397e-13 9.73902e-13 1.21101e-12 1.64268e-12 2.32778e-12 3.35734e-12 4.86387e-12 7.03445e-12 1.01283e-11 1.44997e-11 2.06284e-11 2.91571e-11 4.09394e-11 5.70993e-11 7.91031e-11 1.08848e-10 1.48763e-10 2.01935e-10 2.72244e-10 3.64525e-10 4.84737e-10 6.40157e-10 8.3957e-10 1.09347e-09 1.41425e-09 1.81636e-09 2.31645e-09 2.93345e-09 3.68856e-09 4.60517e-09 5.70864e-09 7.02595e-09 8.58519e-09 1.04149e-08 1.25432e-08 1.49967e-08 1.77993e-08 2.09709e-08 2.45261e-08 2.84721e-08 3.2808e-08 3.75229e-08 4.25947e-08 4.79894e-08 5.36604e-08 5.95483e-08 6.55813e-08 7.16763e-08 7.77401e-08 8.36719e-08 8.93655e-08 9.47126e-08 9.96062e-08 1.03944e-07 1.07631e-07 1.10586e-07 1.12742e-07 1.14048e-07 1.14473e-07 1.14008e-07 1.12663e-07 1.1047e-07 1.07481e-07 1.03762e-07 9.9397e-08 9.44805e-08 8.9115e-08 8.34078e-08 7.74672e-08 7.13992e-08 6.53044e-08 5.92755e-08 5.33952e-08 4.77348e-08 4.2353e-08 3.72961e-08 3.25975e-08 2.82786e-08 2.435e-08 2.08123e-08 1.76577e-08 1.48714e-08 1.24335e-08 1.03197e-08 8.5033e-09 6.95624e-09 5.64999e-09 4.55651e-09 3.64894e-09 2.90209e-09 2.29278e-09 1.80009e-09 1.40545e-09 1.09266e-09 8.47835e-10 6.59297e-10 5.17481e-10 4.14782e-10 3.45439e-10 3.05421e-10 2.92344e-10 
1.27262e-12 1.37971e-12 1.71603e-12 2.32841e-12 3.30051e-12 4.76173e-12 6.90052e-12 9.98298e-12 1.43779e-11 2.059e-11 2.93023e-11 4.14306e-11 5.81921e-11 8.11899e-11 1.12517e-10 1.54882e-10 2.11756e-10 2.87552e-10 3.87822e-10 5.19484e-10 6.91077e-10 9.1303e-10 1.19794e-09 1.56088e-09 2.01965e-09 2.59502e-09 3.31096e-09 4.19473e-09 5.27689e-09 6.59119e-09 8.17426e-09 1.00651e-08 1.23045e-08 1.49337e-08 1.79936e-08 2.15229e-08 2.55566e-08 3.01239e-08 3.52461e-08 4.09345e-08 4.7188e-08 5.39915e-08 6.13135e-08 6.91054e-08 7.73e-08 8.58117e-08 9.45368e-08 1.03355e-07 1.12131e-07 1.20719e-07 1.28965e-07 1.36711e-07 1.43802e-07 1.50088e-07 1.55433e-07 1.59718e-07 1.62843e-07 1.64736e-07 1.65353e-07 1.64678e-07 1.62728e-07 1.59549e-07 1.55214e-07 1.49823e-07 1.43497e-07 1.36373e-07 1.28601e-07 1.20336e-07 1.11735e-07 1.02953e-07 9.41353e-08 8.54164e-08 7.6916e-08 6.87369e-08 6.09641e-08 5.36638e-08 4.6884e-08 4.06553e-08 3.49923e-08 2.98954e-08 2.53527e-08 2.13427e-08 1.78358e-08 1.47968e-08 1.21869e-08 9.96509e-09 8.09014e-09 6.52143e-09 5.22011e-09 4.14979e-09 3.27703e-09 2.57168e-09 2.00698e-09 1.5596e-09 1.20959e-09 9.40159e-10 7.37573e-10 5.90914e-10 4.91913e-10 4.34789e-10 4.16125e-10 
1.79045e-12 1.94131e-12 2.41512e-12 3.27797e-12 4.64796e-12 6.70781e-12 9.72368e-12 1.40716e-11 2.02728e-11 2.90411e-11 4.13427e-11 5.84742e-11 8.21593e-11 1.1467e-10 1.58973e-10 2.1891e-10 2.99411e-10 4.06741e-10 5.48791e-10 7.35401e-10 9.78723e-10 1.29361e-09 1.69802e-09 2.21344e-09 2.86528e-09 3.68323e-09 4.70156e-09 5.95927e-09 7.50016e-09 9.37263e-09 1.16293e-08 1.43262e-08 1.7522e-08 2.12762e-08 2.56479e-08 3.06931e-08 3.64627e-08 4.2999e-08 5.03336e-08 5.84834e-08 6.74476e-08 7.72053e-08 8.77122e-08 9.88988e-08 1.10669e-07 1.22901e-07 1.35444e-07 1.48127e-07 1.60754e-07 1.73115e-07 1.84987e-07 1.96143e-07 2.06357e-07 2.15416e-07 2.23119e-07 2.29295e-07 2.338e-07 2.36529e-07 2.37418e-07 2.36445e-07 2.33633e-07 2.2905e-07 2.22801e-07 2.15032e-07 2.05917e-07 1.95654e-07 1.8446e-07 1.7256e-07 1.60182e-07 1.47546e-07 1.34865e-07 1.22331e-07 1.10116e-07 9.83682e-08 8.72095e-08 7.67343e-08 6.7011e-08 5.80827e-08 4.99697e-08 4.26716e-08 3.61708e-08 3.04354e-08 2.54224e-08 2.10807e-08 1.73541e-08 1.41835e-08 1.15093e-08 9.27321e-09 7.41927e-09 5.89525e-09 4.65321e-09 3.64993e-09 2.84712e-09 2.21142e-09 1.7143e-09 1.3318e-09 1.0443e-09 8.36238e-10 6.95826e-10 6.14823e-10 5.88359e-10 
2.50182e-12 2.71289e-12 3.37587e-12 4.5834e-12 6.50106e-12 9.38512e-12 1.3609e-11 1.97004e-11 2.83913e-11 4.06842e-11 5.79372e-11 8.19733e-11 1.15218e-10 1.60868e-10 2.23103e-10 3.07337e-10 4.20521e-10 5.71496e-10 7.71404e-10 1.03415e-09 1.37691e-09 1.8207e-09 2.39096e-09 3.11814e-09 4.03828e-09 5.19353e-09 6.63259e-09 8.41094e-09 1.05909e-08 1.32416e-08 1.64379e-08 2.02601e-08 2.47919e-08 3.01189e-08 3.63257e-08 4.3493e-08 5.16941e-08 6.09908e-08 7.14289e-08 8.30337e-08 9.58056e-08 1.09716e-07 1.24702e-07 1.40666e-07 1.57472e-07 1.74945e-07 1.92871e-07 2.11005e-07 2.29067e-07 2.46754e-07 2.63748e-07 2.79722e-07 2.94352e-07 3.07329e-07 3.18368e-07 3.27218e-07 3.33675e-07 3.37587e-07 3.3886e-07 3.37465e-07 3.33434e-07 3.26864e-07 3.17909e-07 3.06776e-07 2.93717e-07 2.79017e-07 2.62989e-07 2.45955e-07 2.28243e-07 2.1017e-07 1.92039e-07 1.74126e-07 1.56678e-07 1.39906e-07 1.23982e-07 1.09042e-07 9.51817e-08 8.24617e-08 7.09097e-08 6.05242e-08 5.12786e-08 4.31264e-08 3.60051e-08 2.98412e-08 2.45536e-08 2.00576e-08 1.62679e-08 1.31007e-08 1.04764e-08 8.32031e-09 6.56413e-09 5.14633e-09 4.01242e-09 3.11501e-09 2.41356e-09 1.87408e-09 1.46876e-09 1.17554e-09 9.77704e-10 8.63596e-10 8.26321e-10 
3.47198e-12 3.76528e-12 4.68665e-12 6.36505e-12 9.03111e-12 1.30418e-11 1.89174e-11 2.73937e-11 3.94915e-11 5.66096e-11 8.06439e-11 1.14141e-10 1.60489e-10 2.24159e-10 3.11e-10 4.2859e-10 5.86666e-10 7.97621e-10 1.07708e-09 1.44457e-09 1.92422e-09 2.54558e-09 3.34443e-09 4.36366e-09 5.65406e-09 7.27511e-09 9.29555e-09 1.17938e-08 1.48582e-08 1.85863e-08 2.30847e-08 2.84673e-08 3.48532e-08 4.23642e-08 5.11213e-08 6.12398e-08 7.28252e-08 8.59663e-08 1.0073e-07 1.17154e-07 1.3524e-07 1.5495e-07 1.76197e-07 1.98844e-07 2.22697e-07 2.47509e-07 2.72979e-07 2.98755e-07 3.2444e-07 3.49603e-07 3.73788e-07 3.96529e-07 4.17364e-07 4.35849e-07 4.51576e-07 4.64187e-07 4.73389e-07 4.78964e-07 4.80779e-07 4.78789e-07 4.73043e-07 4.63678e-07 4.50916e-07 4.35053e-07 4.16451e-07 3.95517e-07 3.72699e-07 3.48457e-07 3.23259e-07 2.9756e-07 2.71788e-07 2.4634e-07 2.21564e-07 1.97759e-07 1.75172e-07 1.53992e-07 1.34353e-07 1.16341e-07 9.99933e-08 8.53048e-08 7.22366e-08 6.07211e-08 5.06681e-08 4.1972e-08 3.45169e-08 2.81819e-08 2.28452e-08 1.8388e-08 1.46969e-08 1.16663e-08 9.19919e-09 7.20858e-09 5.61745e-09 4.35884e-09 3.37556e-09 2.61968e-09 2.05201e-09 1.64148e-09 1.36459e-09 1.20491e-09 1.15275e-09 
4.78536e-12 5.19017e-12 6.4619e-12 8.77892e-12 1.24602e-11 1.79997e-11 2.61176e-11 3.78324e-11 5.45586e-11 7.82345e-11 1.11489e-10 1.57855e-10 2.22037e-10 3.10245e-10 4.30606e-10 5.93661e-10 8.12959e-10 1.10576e-09 1.49384e-09 2.00442e-09 2.67119e-09 3.53541e-09 4.64712e-09 6.06632e-09 7.86415e-09 1.0124e-08 1.29423e-08 1.64292e-08 2.07089e-08 2.5919e-08 3.22096e-08 3.97413e-08 4.86829e-08 5.92068e-08 7.14845e-08 8.56806e-08 1.01945e-07 1.20406e-07 1.4116e-07 1.64263e-07 1.8972e-07 2.1748e-07 2.47423e-07 2.79357e-07 3.13013e-07 3.48041e-07 3.84016e-07 4.20441e-07 4.56756e-07 4.92348e-07 5.26571e-07 5.58762e-07 5.88263e-07 6.14445e-07 6.36725e-07 6.54594e-07 6.67634e-07 6.75534e-07 6.78105e-07 6.75283e-07 6.67137e-07 6.53864e-07 6.35778e-07 6.13304e-07 5.86955e-07 5.57314e-07 5.25013e-07 4.90712e-07 4.55071e-07 4.18738e-07 3.8232e-07 3.46377e-07 3.11402e-07 2.77818e-07 2.45969e-07 2.16122e-07 1.88465e-07 1.63114e-07 1.4012e-07 1.19473e-07 1.01116e-07 8.49505e-08 7.08474e-08 5.86559e-08 4.8211e-08 3.93411e-08 3.18739e-08 2.56413e-08 2.04833e-08 1.62508e-08 1.28075e-08 1.00308e-08 7.81261e-09 6.05897e-09 4.68967e-09 3.63755e-09 2.84775e-09 2.27679e-09 1.8918e-09 1.66984e-09 1.59734e-09 