<?xml version="1.0"?>
<VTKFile type="StructuredGrid" version="0.1">
<StructuredGrid WholeExtent="0 80 0 80 0 0">
<Piece Extent="0 80 0 80 0 0">
<Points>
<DataArray type="Float64" NumberOfComponents="3" format="ascii">
-20 -20 0
-20 -19.5 0
-20 -19 0
-20 -18.5 0
-20 -18 0
-20 -17.5 0
-20 -17 0
-20 -16.5 0
-20 -16 0
-20 -15.5 0
-20 -15 0
-20 -14.5 0
-20 -14 0
-20 -13.5 0
-20 -13 0
-20 -12.5 0
-20 -12 0
-20 -11.5 0
-20 -11 0
-20 -10.5 0
-20 -10 0
-20 -9.5 0
-20 -9 0
-20 -8.5 0
-20 -8 0
-20 -7.5 0
-20 -7 0
-20 -6.5 0
-20 -6 0
-20 -5.5 0
-20 -5 0
-20 -4.5 0
-20 -4 0
-20 -3.5 0
-20 -3 0
-20 -2.5 0
-20 -2 0
-20 -1.5 0
-20 -1 0
-20 -0.5 0
-20 0 0
-20 0.5 0
-20 1 0
-20 1.5 0
-20 2 0
-20 2.5 0
-20 3 0
-20 3.5 0
-20 4 0
-20 4.5 0
-20 5 0
-20 5.5 0
-20 6 0
-20 6.5 0
-20 7 0
-20 7.5 0
-20 8 0
-20 8.5 0
-20 9 0
-20 9.5 0
-20 10 0
-20 10.5 0
-20 11 0
-20 11.5 0
-20 12 0
-20 12.5 0
-20 13 0
-20 13.5 0
-20 14 0
-20 14.5 0
-20 15 0
-20 15.5 0
-20 16 0
-20 16.5 0
-20 17 0
-20 17.5 0
-20 18 0
-20 18.5 0
-20 19 0
-20 19.5 0
-20 20 0
-19.5 -20 0
-19.5 -19.5 0
-19.5 -19 0
-19.5 -18.5 0
-19.5 -18 0
-19.5 -17.5 0
-19.5 -17 0
-19.5 -16.5 0
-19.5 -16 0
-19.5 -15.5 0
-19.5 -15 0
-19.5 -14.5 0
-19.5 -14 0
-19.5 -13.5 0
-19.5 -13 0
-19.5 -12.5 0
-19.5 -12 0
-19.5 -11.5 0
-19.5 -11 0
-19.5 -10.5 0
-19.5 -10 0
-19.5 -9.5 0
-19.5 -9 0
-19.5 -8.5 0
-19.5 -8 0
-19.5 -7.5 0
-19.5 -7 0
-19.5 -6.5 0
-19.5 -6 0
-19.5 -5.5 0
-19.5 -5 0
-19.5 -4.5 0
-19.5 -4 0
-19.5 -3.5 0
-19.5 -3 0
-19.5 -2.5 0
-19.5 -2 0
-19.5 -1.5 0
-19.5 -1 0
-19.5 -0.5 0
-19.5 0 0
-19.5 0.5 0
-19.5 1 0
-19.5 1.5 0
-19.5 2 0
-19.5 2.5 0
-19.5 3 0
-19.5 3.5 0
-19.5 4 0
-19.5 4.5 0
-19.5 5 0
-19.5 5.5 0
-19.5 6 0
-19.5 6.5 0
-19.5 7 0
-19.5 7.5 0
-19.5 8 0
-19.5 8.5 0
-19.5 9 0
-19.5 9.5 0
-19.5 10 0
-19.5 10.5 0
-19.5 11 0
-19.5 11.5 0
-19.5 12 0
-19.5 12.5 0
-19.5 13 0
-19.5 13.5 0
-19.5 14 0
-19.5 14.5 0
-19.5 15 0
-19.5 15.5 0
-19.5 16 0
-19.5 16.5 0
-19.5 17 0
-19.5 17.5 0
-19.5 18 0
-19.5 18.5 0
-19.5 19 0
-19.5 19.5 0
-19.5 20 0
-19 -20 0
-19 -19.5 0
-19 -19 0
-19 -18.5 0
-19 -18 0
-19 -17.5 0
-19 -17 0
-19 -16.5 0
-19 -16 0
-19 -15.5 0
-19 -15 0
-19 -14.5 0
-19 -14 0
-19 -13.5 0
-19 -13 0
-19 -12.5 0
-19 -12 0
-19 -11.5 0
-19 -11 0
-19 -10.5 0
-19 -10 0
-19 -9.5 0
-19 -9 0
-19 -8.5 0
-19 -8 0
-19 -7.5 0
-19 -7 0
-19 -6.5 0
-19 -6 0
-19 -5.5 0
-19 -5 0
-19 -4.5 0
-19 -4 0
-19 -3.5 0
-19 -3 0
-19 -2.5 0
-19 -2 0
-19 -1.5 0
-19 -1 0
-19 -0.5 0
-19 0 0
-19 0.5 0
-19 1 0
-19 1.5 0
-19 2 0
-19 2.5 0
-19 3 0
-19 3.5 0
-19 4 0
-19 4.5 0
-19 5 0
-19 5.5 0
-19 6 0
-19 6.5 0
-19 7 0
-19 7.5 0
-19 8 0
-19 8.5 0
-19 9 0
-19 9.5 0
-19 10 0
-19 10.5 0
-19 11 0
-19 11.5 0
-19 12 0
-19 12.5 0
-19 13 0
-19 13.5 0
-19 14 0
-19 14.5 0
-19 15 0
-19 15.5 0
-19 16 0
-19 16.5 0
-19 17 0
-19 17.5 0
-19 18 0
-19 18.5 0
-19 19 0
-19 19.5 0
-19 20 0
-18.5 -20 0
-18.5 -19.5 0
-18.5 -19 0
-18.5 -18.5 0
-18.5 -18 0
-18.5 -17.5 0
-18.5 -17 0
-18.5 -16.5 0
-18.5 -16 0
-18.5 -15.5 0
-18.5 -15 0
-18.5 -14.5 0
-18.5 -14 0
-18.5 -13.5 0
-18.5 -13 0
-18.5 -12.5 0
-18.5 -12 0
-18.5 -11.5 0
-18.5 -11 0
-18.5 -10.5 0
-18.5 -10 0
-18.5 -9.5 0
-18.5 -9 0
-18.5 -8.5 0
-18.5 -8 0
-18.5 -7.5 0
-18.5 -7 0
-18.5 -6.5 0
-18.5 -6 0
-18.5 -5.5 0
-18.5 -5 0
-18.5 -4.5 0
-18.5 -4 0
-18.5 -3.5 0
-18.5 -3 0
-18.5 -2.5 0
-18.5 -2 0
-18.5 -1.5 0
-18.5 -1 0
-18.5 -0.5 0
-18.5 0 0
-18.5 0.5 0
-18.5 1 0
-18.5 1.5 0
-18.5 2 0
-18.5 2.5 0
-18.5 3 0
-18.5 3.5 0
-18.5 4 0
-18.5 4.5 0
-18.5 5 0
-18.5 5.5 0
-18.5 6 0
-18.5 6.5 0
-18.5 7 0
-18.5 7.5 0
-18.5 8 0
-18.5 8.5 0
-18.5 9 0
-18.5 9.5 0
-18.5 10 0
-18.5 10.5 0
-18.5 11 0
-18.5 11.5 0
-18.5 12 0
-18.5 12.5 0
-18.5 13 0
-18.5 13.5 0
-18.5 14 0
-18.5 14.5 0
-18.5 15 0
-18.5 15.5 0
-18.5 16 0
-18.5 16.5 0
-18.5 17 0
-18.5 17.5 0
-18.5 18 0
-18.5 18.5 0
-18.5 19 0
-18.5 19.5 0
-18.5 20 0
-18 -20 0
-18 -19.5 0
-18 -19 0
-18 -18.5 0
-18 -18 0
-18 -17.5 0
-18 -17 0
-18 -16.5 0
-18 -16 0
-18 -15.5 0
-18 -15 0
-18 -14.5 0
-18 -14 0
-18 -13.5 0
-18 -13 0
-18 -12.5 0
-18 -12 0
-18 -11.5 0
-18 -11 0
-18 -10.5 0
-18 -10 0
-18 -9.5 0
-18 -9 0
-18 -8.5 0
-18 -8 0
-18 -7.5 0
-18 -7 0
-18 -6.5 0
-18 -6 0
-18 -5.5 0
-18 -5 0
-18 -4.5 0
-18 -4 0
-18 -3.5 0
-18 -3 0
-18 -2.5 0
-18 -2 0
-18 -1.5 0
-18 -1 0
-18 -0.5 0
-18 0 0
-18 0.5 0
-18 1 0
-18 1.5 0
-18 2 0
-18 2.5 0
-18 3 0
-18 3.5 0
-18 4 0
-18 4.5 0
-18 5 0
-18 5.5 0
-18 6 0
-18 6.5 0
-18 7 0
-18 7.5 0
-18 8 0
-18 8.5 0
-18 9 0
-18 9.5 0
-18 10 0
-18 10.5 0
-18 11 0
-18 11.5 0
-18 12 0
-18 12.5 0
-18 13 0
-18 13.5 0
-18 14 0
-18 14.5 0
-18 15 0
-18 15.5 0
-18 16 0
-18 16.5 0
-18 17 0
-18 17.5 0
-18 18 0
-18 18.5 0
-18 19 0
-18 19.5 0
-18 20 0
-17.5 -20 0
-17.5 -19.5 0
-17.5 -19 0
-17.5 -18.5 0
-17.5 -18 0
-17.5 -17.5 0
-17.5 -17 0
-17.5 -16.5 0
-17.5 -16 0
-17.5 -15.5 0
-17.5 -15 0
-17.5 -14.5 0
-17.5 -14 0
-17.5 -13.5 0
-17.5 -13 0
-17.5 -12.5 0
-17.5 -12 0
-17.5 -11.5 0
-17.5 -11 0
-17.5 -10.5 0
-17.5 -10 0
-17.5 -9.5 0
-17.5 -9 0
-17.5 -8.5 0
-17.5 -8 0
-17.5 -7.5 0
-17.5 -7 0
-17.5 -6.5 0
-17.5 -6 0
-17.5 -5.5 0
-17.5 -5 0
-17.5 -4.5 0
-17.5 -4 0
-17.5 -3.5 0
-17.5 -3 0
-17.5 -2.5 0
-17.5 -2 0
-17.5 -1.5 0
-17.5 -1 0
-17.5 -0.5 0
-17.5 0 0
-17.5 0.5 0
-17.5 1 0
-17.5 1.5 0
-17.5 2 0
-17.5 2.5 0
-17.5 3 0
-17.5 3.5 0
-17.5 4 0
-17.5 4.5 0
-17.5 5 0
-17.5 5.5 0
-17.5 6 0
-17.5 6.5 0
-17.5 7 0
-17.5 7.5 0
-17.5 8 0
-17.5 8.5 0
-17.5 9 0
-17.5 9.5 0
-17.5 10 0
-17.5 10.5 0
-17.5 11 0
-17.5 11.5 0
-17.5 12 0
-17.5 12.5 0
-17.5 13 0
-17.5 13.5 0
-17.5 14 0
-17.5 14.5 0
-17.5 15 0
-17.5 15.5 0
-17.5 16 0
-17.5 16.5 0
-17.5 17 0
-17.5 17.5 0
-17.5 18 0
-17.5 18.5 0
-17.5 19 0
-17.5 19.5 0
-17.5 20 0
-17 -20 0
-17 -19.5 0
-17 -19 0
-17 -18.5 0
-17 -18 0
-17 -17.5 0
-17 -17 0
-17 -16.5 0
-17 -16 0
-17 -15.5 0
-17 -15 0
-17 -14.5 0
-17 -14 0
-17 -13.5 0
-17 -13 0
-17 -12.5 0
-17 -12 0
-17 -11.5 0
-17 -11 0
-17 -10.5 0
-17 -10 0
-17 -9.5 0
-17 -9 0
-17 -8.5 0
-17 -8 0
-17 -7.5 0
-17 -7 0
-17 -6.5 0
-17 -6 0
-17 -5.5 0
-17 -5 0
-17 -4.5 0
-17 -4 0
-17 -3.5 0
-17 -3 0
-17 -2.5 0
-17 -2 0
-17 -1.5 0
-17 -1 0
-17 -0.5 0
-17 0 0
-17 0.5 0
-17 1 0
-17 1.5 0
-17 2 0
-17 2.5 0
-17 3 0
-17 3.5 0
-17 4 0
-17 4.5 0
-17 5 0
-17 5.5 0
-17 6 0
-17 6.5 0
-17 7 0
-17 7.5 0
-17 8 0
-17 8.5 0
-17 9 0
-17 9.5 0
-17 10 0
-17 10.5 0
-17 11 0
-17 11.5 0
-17 12 0
-17 12.5 0
-17 13 0
-17 13.5 0
-17 14 0
-17 14.5 0
-17 15 0
-17 15.5 0
-17 16 0
-17 16.5 0
-17 17 0
-17 17.5 0
-17 18 0
-17 18.5 0
-17 19 0
-17 19.5 0
-17 20 0
-16.5 -20 0
-16.5 -19.5 0
-16.5 -19 0
-16.5 -18.5 0
-16.5 -18 0
-16.5 -17.5 0
-16.5 -17 0
-16.5 -16.5 0
-16.5 -16 0
-16.5 -15.5 0
-16.5 -15 0
-16.5 -14.5 0
-16.5 -14 0
-16.5 -13.5 0
-16.5 -13 0
-16.5 -12.5 0
-16.5 -12 0
-16.5 -11.5 0
-16.5 -11 0
-16.5 -10.5 0
-16.5 -10 0
-16.5 -9.5 0
-16.5 -9 0
-16.5 -8.5 0
-16.5 -8 0
-16.5 -7.5 0
-16.5 -7 0
-16.5 -6.5 0
-16.5 -6 0
-16.5 -5.5 0
-16.5 -5 0
-16.5 -4.5 0
-16.5 -4 0
-16.5 -3.5 0
-16.5 -3 0
-16.5 -2.5 0
-16.5 -2 0
-16.5 -1.5 0
-16.5 -1 0
-16.5 -0.5 0
-16.5 0 0
-16.5 0.5 0
-16.5 1 0
-16.5 1.5 0
-16.5 2 0
-16.5 2.5 0
-16.5 3 0
-16.5 3.5 0
-16.5 4 0
-16.5 4.5 0
-16.5 5 0
-16.5 5.5 0
-16.5 6 0
-16.5 6.5 0
-16.5 7 0
-16.5 7.5 0
-16.5 8 0
-16.5 8.5 0
-16.5 9 0
-16.5 9.5 0
-16.5 10 0
-16.5 10.5 0
-16.5 11 0
-16.5 11.5 0
-16.5 12 0
-16.5 12.5 0
-16.5 13 0
-16.5 13.5 0
-16.5 14 0
-16.5 14.5 0
-16.5 15 0
-16.5 15.5 0
-16.5 16 0
-16.5 16.5 0
-16.5 17 0
-16.5 17.5 0
-16.5 18 0
-16.5 18.5 0
-16.5 19 0
-16.5 19.5 0
-16.5 20 0
-16 -20 0
-16 -19.5 0
-16 -19 0
-16 -18.5 0
-16 -18 0
-16 -17.5 0
-16 -17 0
-16 -16.5 0
-16 -16 0
-16 -15.5 0
-16 -15 0
-16 -14.5 0
-16 -14 0
-16 -13.5 0
-16 -13 0
-16 -12.5 0
-16 -12 0
-16 -11.5 0
-16 -11 0
-16 -10.5 0
-16 -10 0
-16 -9.5 0
-16 -9 0
-16 -8.5 0
-16 -8 0
-16 -7.5 0
-16 -7 0
-16 -6.5 0
-16 -6 0
-16 -5.5 0
-16 -5 0
-16 -4.5 0
-16 -4 0
-16 -3.5 0
-16 -3 0
-16 -2.5 0
-16 -2 0
-16 -1.5 0
-16 -1 0
-16 -0.5 0
-16 0 0
-16 0.5 0
-16 1 0
-16 1.5 0
-16 2 0
-16 2.5 0
-16 3 0
-16 3.5 0
-16 4 0
-16 4.5 0
-16 5 0
-16 5.5 0
-16 6 0
-16 6.5 0
-16 7 0
-16 7.5 0
-16 8 0
-16 8.5 0
-16 9 0
-16 9.5 0
-16 10 0
-16 10.5 0
-16 11 0
-16 11.5 0
-16 12 0
-16 12.5 0
-16 13 0
-16 13.5 0
-16 14 0
-16 14.5 0
-16 15 0
-16 15.5 0
-16 16 0
-16 16.5 0
-16 17 0
-16 17.5 0
-16 18 0
-16 18.5 0
-16 19 0
-16 19.5 0
-16 20 0
-15.5 -20 0
-15.5 -19.5 0
-15.5 -19 0
-15.5 -18.5 0
-15.5 -18 0
-15.5 -17.5 0
-15.5 -17 0
-15.5 -16.5 0
-15.5 -16 0
-15.5 -15.5 0
-15.5 -15 0
-15.5 -14.5 0
-15.5 -14 0
-15.5 -13.5 0
-15.5 -13 0
-15.5 -12.5 0
-15.5 -12 0
-15.5 -11.5 0
-15.5 -11 0
-15.5 -10.5 0
-15.5 -10 0
-15.5 -9.5 0
-15.5 -9 0
-15.5 -8.5 0
-15.5 -8 0
-15.5 -7.5 0
-15.5 -7 0
-15.5 -6.5 0
-15.5 -6 0
-15.5 -5.5 0
-15.5 -5 0
-15.5 -4.5 0
-15.5 -4 0
-15.5 -3.5 0
-15.5 -3 0
-15.5 -2.5 0
-15.5 -2 0
-15.5 -1.5 0
-15.5 -1 0
-15.5 -0.5 0
-15.5 0 0
-15.5 0.5 0
-15.5 1 0
-15.5 1.5 0
-15.5 2 0
-15.5 2.5 0
-15.5 3 0
-15.5 3.5 0
-15.5 4 0
-15.5 4.5 0
-15.5 5 0
-15.5 5.5 0
-15.5 6 0
-15.5 6.5 0
-15.5 7 0
-15.5 7.5 0
-15.5 8 0
-15.5 8.5 0
-15.5 9 0
-15.5 9.5 0
-15.5 10 0
-15.5 10.5 0
-15.5 11 0
-15.5 11.5 0
-15.5 12 0
-15.5 12.5 0
-15.5 13 0
-15.5 13.5 0
-15.5 14 0
-15.5 14.5 0
-15.5 15 0
-15.5 15.5 0
-15.5 16 0
-15.5 16.5 0
-15.5 17 0
-15.5 17.5 0
-15.5 18 0
-15.5 18.5 0
-15.5 19 0
-15.5 19.5 0
-15.5 20 0
-15 -20 0
-15 -19.5 0
-15 -19 0
-15 -18.5 0
-15 -18 0
-15 -17.5 0
-15 -17 0
-15 -16.5 0
-15 -16 0
-15 -15.5 0
-15 -15 0
-15 -14.5 0
-15 -14 0
-15 -13.5 0
-15 -13 0
-15 -12.5 0
-15 -12 0
-15 -11.5 0
-15 -11 0
-15 -10.5 0
-15 -10 0
-15 -9.5 0
-15 -9 0
-15 -8.5 0
-15 -8 0
-15 -7.5 0
-15 -7 0
-15 -6.5 0
-15 -6 0
-15 -5.5 0
-15 -5 0
-15 -4.5 0
-15 -4 0
-15 -3.5 0
-15 -3 0
-15 -2.5 0
-15 -2 0
-15 -1.5 0
-15 -1 0
-15 -0.5 0
-15 0 0
-15 0.5 0
-15 1 0
-15 1.5 0
-15 2 0
-15 2.5 0
-15 3 0
-15 3.5 0
-15 4 0
-15 4.5 0
-15 5 0
-15 5.5 0
-15 6 0
-15 6.5 0
-15 7 0
-15 7.5 0
-15 8 0
-15 8.5 0
-15 9 0
-15 9.5 0
-15 10 0
-15 10.5 0
-15 11 0
-15 11.5 0
-15 12 0
-15 12.5 0
-15 13 0
-15 13.5 0
-15 14 0
-15 14.5 0
-15 15 0
-15 15.5 0
-15 16 0
-15 16.5 0
-15 17 0
-15 17.5 0
-15 18 0
-15 18.5 0
-15 19 0
-15 19.5 0
-15 20 0
-14.5 -20 0
-14.5 -19.5 0
-14.5 -19 0
-14.5 -18.5 0
[...]
<PointData Scalars="scalars">
<DataArray type="Float64" Name="u" NumberOfComponents="1" format="ascii">
5.70405e-28 1.09169e-27 3.54068e-27 1.19565e-26 3.96525e-26 1.28488e-25 4.06475e-25 1.25481e-24 3.7783e-24 1.10913e-23 3.17264e-23 8.8389e-23 2.3971e-22 6.32494e-22 1.62281e-21 4.04647e-21 9.80009e-21 2.30394e-20 5.25455e-20 1.16185e-19 2.4891e-19 5.1633e-19 1.03638e-18 2.01153e-18 3.77272e-18 6.83299e-18 1.19426e-17 2.01289e-17 3.26954e-17 5.11459e-17 7.70039e-17 1.11513e-16 1.55236e-16 2.07623e-16 2.6666e-16 3.28733e-16 3.88833e-16 4.41142e-16 4.79935e-16 5.00614e-16 5.00614e-16 4.79935e-16 4.41142e-16 3.88833e-16 3.28733e-16 2.6666e-16 2.07623e-16 1.55236e-16 1.11513e-16 7.70039e-17 5.11459e-17 3.26954e-17 2.01289e-17 1.19426e-17 6.83299e-18 3.77272e-18 2.01153e-18 1.03638e-18 5.1633e-19 2.4891e-19 1.16185e-19 5.25455e-20 2.30394e-20 9.80009e-21 4.04647e-21 1.62281e-21 6.32494e-22 2.3971e-22 8.8389e-23 3.17264e-23 1.10913e-23 3.7783e-24 1.25481e-24 4.06475e-25 1.28488e-25 3.96511e-26 1.19513e-26 3.52096e-27 1.01874e-27 3.06367e-28 1.57076e-28 
1.09372e-27 2.09266e-27 6.78466e-27 2.2904e-26 7.59369e-26 2.45997e-25 7.78023e-25 2.40125e-24 7.22875e-24 2.12161e-23 6.0678e-23 1.69022e-22 4.58329e-22 1.20921e-21 3.10225e-21 7.73497e-21 1.87326e-20 4.40385e-20 1.00439e-19 2.22091e-19 4.75823e-19 9.87106e-19 1.98152e-18 3.84642e-18 7.21515e-18 1.30698e-17 2.28469e-17 3.85149e-17 6.25715e-17 9.79005e-17 1.47425e-16 2.13535e-16 2.97315e-16 3.9772e-16 5.10893e-16 6.29908e-16 7.45159e-16 8.45482e-16 9.19891e-16 9.59557e-16 9.59557e-16 9.19891e-16 8.45482e-16 7.45159e-16 6.29908e-16 5.10893e-16 3.9772e-16 2.97315e-16 2.13535e-16 1.47425e-16 9.79005e-17 6.25715e-17 3.85149e-17 2.28469e-17 1.30698e-17 7.21515e-18 3.84642e-18 1.98152e-18 9.87106e-19 4.75823e-19 2.22091e-19 1.00439e-19 4.40385e-20 1.87326e-20 7.73497e-21 3.10225e-21 1.20921e-21 4.58329e-22 1.69022e-22 6.0678e-23 2.12161e-23 7.22875e-24 2.40125e-24 7.78023e-25 2.45996e-25 7.59343e-26 2.2894e-26 6.74682e-27 1.95274e-27 5.8747e-28 3.01289e-28 
3.55621e-27 6.80181e-27 2.20423e-26 7.43827e-26 2.46524e-25 7.98345e-25 2.52418e-24 7.7883e-24 2.344e-23 6.87797e-23 1.96671e-22 5.47743e-22 1.48507e-21 3.91762e-21 1.00499e-20 2.50566e-20 6.06807e-20 1.42656e-19 3.25369e-19 7.19513e-19 1.5417e-18 3.19871e-18 6.42212e-18 1.24686e-17 2.33938e-17 4.23863e-17 7.41132e-17 1.24972e-16 2.03088e-16 3.17847e-16 4.78775e-16 6.93668e-16 9.66095e-16 1.29269e-15 1.66092e-15 2.04826e-15 2.42344e-15 2.75009e-15 2.99239e-15 3.12157e-15 3.12157e-15 2.99239e-15 2.75009e-15 2.42344e-15 2.04826e-15 1.66092e-15 1.29269e-15 9.66095e-16 6.93668e-16 4.78775e-16 3.17847e-16 2.03088e-16 1.24972e-16 7.41132e-17 4.23863e-17 2.33938e-17 1.24686e-17 6.42212e-18 3.19871e-18 1.5417e-18 7.19513e-19 3.25369e-19 1.42656e-19 6.06807e-20 2.50566e-20 1.00499e-20 3.91762e-21 1.48507e-21 5.47743e-22 1.96671e-22 6.87797e-23 2.344e-23 7.7883e-24 2.52418e-24 7.98343e-25 2.46515e-25 7.435e-26 2.19192e-26 6.34667e-27 1.91027e-27 9.80069e-28 
1.20383e-26 2.30181e-26 7.45647e-26 2.51538e-25 8.33414e-25 2.69819e-24 8.52887e-24 2.63096e-23 7.91661e-23 2.32254e-22 6.64012e-22 1.84909e-21 5.01288e-21 1.3223e-20 3.39198e-20 8.45684e-20 2.04807e-19 4.81511e-19 1.09831e-18 2.42904e-18 5.20541e-18 1.0802e-17 2.16915e-17 4.21236e-17 7.90519e-17 1.43269e-16 2.50579e-16 4.2266e-16 6.8706e-16 1.07563e-15 1.62073e-15 2.3489e-15 3.27236e-15 4.3798e-15 5.62883e-15 6.94307e-15 8.21635e-15 9.32514e-15 1.01477e-14 1.05863e-14 1.05863e-14 1.01477e-14 9.32514e-15 8.21635e-15 6.94307e-15 5.62883e-15 4.3798e-15 3.27236e-15 2.3489e-15 1.62073e-15 1.07563e-15 6.8706e-16 4.2266e-16 2.50579e-16 1.43269e-16 7.90519e-17 4.21236e-17 2.16915e-17 1.0802e-17 5.20541e-18 2.42904e-18 1.09831e-18 4.81511e-19 2.04807e-19 8.45684e-20 3.39198e-20 1.3223e-20 5.01288e-21 1.84909e-21 6.64012e-22 2.32254e-22 7.91661e-23 2.63096e-23 8.52886e-24 2.69818e-24 8.33385e-25 2.51428e-25 7.41476e-26 2.14769e-26 6.46691e-27 3.31896e-27 
4.00254e-26 7.65095e-26 2.47756e-25 8.35535e-25 2.7676e-24 8.95789e-24 2.83092e-23 8.73097e-23 2.62671e-22 7.70499e-22 2.20258e-21 6.13301e-21 1.66255e-20 4.38533e-20 1.12492e-19 2.8047e-19 6.79278e-19 1.59715e-18 3.64348e-18 8.05916e-18 1.72737e-17 3.58529e-17 7.20135e-17 1.39882e-16 2.62587e-16 4.76044e-16 8.32876e-16 1.40532e-15 2.28523e-15 3.57893e-15 5.39454e-15 7.82093e-15 1.08993e-14 1.45924e-14 1.87592e-14 2.31448e-14 2.7395e-14 3.10969e-14 3.38438e-14 3.53085e-14 3.53085e-14 3.38438e-14 3.10969e-14 2.7395e-14 2.31448e-14 1.87592e-14 1.45924e-14 1.08993e-14 7.82093e-15 5.39454e-15 3.57893e-15 2.28523e-15 1.40532e-15 8.32876e-16 4.76044e-16 2.62587e-16 1.39882e-16 7.20135e-17 3.58529e-17 1.72737e-17 8.05916e-18 3.64348e-18 1.59715e-18 6.79278e-19 2.8047e-19 1.12492e-19 4.38533e-20 1.66255e-20 6.13301e-21 2.20258e-21 7.70499e-22 2.62671e-22 8.73097e-23 2.83092e-23 8.95787e-24 2.7675e-24 8.35167e-25 2.46368e-25 7.13837e-26 2.15025e-26 1.10389e-26 
1.30045e-25 2.48517e-25 8.04492e-25 2.71232e-24 8.98196e-24 2.90654e-23 9.18356e-23 2.83185e-22 8.51837e-22 2.49841e-21 7.1414e-21 1.98837e-20 5.38993e-20 1.42171e-19 3.64705e-19 9.09355e-19 2.20259e-18 5.17949e-18 1.18175e-17 2.61445e-17 5.60498e-17 1.16365e-16 2.33794e-16 4.54272e-16 8.53046e-16 1.54704e-15 2.70768e-15 4.57048e-15 7.43517e-15 1.1649e-14 1.75657e-14 2.54765e-14 3.55176e-14 4.75691e-14 6.11718e-14 7.54944e-14 8.93786e-14 1.01475e-13 1.10452e-13 1.1524e-13 1.1524e-13 1.10452e-13 1.01475e-13 8.93786e-14 7.54944e-14 6.11718e-14 4.75691e-14 3.55176e-14 2.54765e-14 1.75657e-14 1.1649e-14 7.43517e-15 4.57048e-15 2.70768e-15 1.54704e-15 8.53046e-16 4.54272e-16 2.33794e-16 1.16365e-16 5.60498e-17 2.61445e-17 1.18175e-17 5.17949e-18 2.20259e-18 9.09355e-19 3.64705e-19 1.42171e-19 5.38993e-20 1.98837e-20 7.1414e-21 2.49841e-21 8.51837e-22 2.83185e-22 9.18356e-23 2.90653e-23 8.98165e-24 2.71112e-24 7.99979e-25 2.31859e-25 6.98662e-26 3.58781e-26 
4.1257e-25 7.88229e-25 2.55084e-24 8.59791e-24 2.84659e-23 9.20966e-23 2.90939e-22 8.97012e-22 2.69793e-21 7.91224e-21 2.26147e-20 6.2964e-20 1.70678e-19 4.50214e-19 1.15499e-18 2.88013e-18 6.97702e-18 1.64095e-17 3.74473e-17 8.28661e-17 1.77699e-16 3.69032e-16 7.41685e-16 1.44165e-15 2.70822e-15 4.91349e-15 8.60348e-15 1.45289e-14 2.36461e-14 3.70645e-14 5.59156e-14 8.11336e-14 1.13159e-13 1.51616e-13 1.95042e-13 2.40785e-13 2.85144e-13 3.23801e-13 3.52496e-13 3.67801e-13 3.67801e-13 3.52496e-13 3.23801e-13 2.85144e-13 2.40785e-13 1.95042e-13 1.51616e-13 1.13159e-13 8.11336e-14 5.59156e-14 3.70645e-14 2.36461e-14 1.45289e-14 8.60348e-15 4.91349e-15 2.70822e-15 1.44165e-15 7.41685e-16 3.69032e-16 1.77699e-16 8.28661e-17 3.74473e-17 1.64095e-17 6.97702e-18 2.88013e-18 1.15499e-18 4.50214e-19 1.70678e-19 6.2964e-20 2.26147e-20 7.91224e-21 2.69793e-21 8.97011e-22 2.90939e-22 9.20963e-23 2.84649e-23 8.59411e-24 2.53652e-24 7.35365e-25 2.21662e-25 1.1386e-25 
1.27746e-24 2.44007e-24 7.89425e-24 2.66023e-23 8.80571e-23 2.84844e-22 8.9971e-22 2.77361e-21 8.34141e-21 2.44614e-20 6.99133e-20 1.94653e-19 5.27668e-19 1.39197e-18 3.57137e-18 8.90694e-18 2.15805e-17 5.07665e-17 1.1588e-16 2.565e-16 5.50218e-16 1.14305e-15 2.2982e-15 4.46897e-15 8.39895e-15 1.52453e-14 2.67075e-14 4.51243e-14 7.34789e-14 1.15236e-13 1.73935e-13 2.52506e-13 3.52347e-13 4.72303e-13 6.0783e-13 7.50653e-13 8.89208e-13 1.00999e-12 1.09967e-12 1.14751e-12 1.14751e-12 1.09967e-12 1.00999e-12 8.89208e-13 7.50653e-13 6.0783e-13 4.72303e-13 3.52347e-13 2.52506e-13 1.73935e-13 1.15236e-13 7.34789e-14 4.51243e-14 2.67075e-14 1.52453e-14 8.39895e-15 4.46897e-15 2.2982e-15 1.14305e-15 5.50218e-16 2.565e-16 1.1588e-16 5.07665e-17 2.15805e-17 8.90694e-18 3.57137e-18 1.39197e-18 5.27668e-19 1.94653e-19 6.99133e-20 2.44614e-20 8.34141e-21 2.77361e-21 8.9971e-22 2.84844e-22 8.80541e-23 2.65906e-23 7.84987e-24 2.27634e-24 6.86371e-25 3.52652e-25 
3.85875e-24 7.36903e-24 2.38346e-23 8.03022e-23 2.65764e-22 8.59557e-22 2.71467e-21 8.36799e-21 2.51645e-20 7.37932e-20 2.1091e-19 5.87236e-19 1.592e-18 4.2001e-18 1.07777e-17 2.68841e-17 6.51512e-17 1.53302e-16 3.50032e-16 7.75052e-16 1.66317e-15 3.45656e-15 6.95278e-15 1.35265e-14 2.54344e-14 4.61916e-14 8.09657e-14 1.36876e-13 2.23014e-13 3.49954e-13 5.28522e-13 7.67707e-13 1.07184e-12 1.43747e-12 1.85081e-12 2.28662e-12 2.70959e-12 3.07845e-12 3.3524e-12 3.49855e-12 3.49855e-12 3.3524e-12 3.07845e-12 2.70959e-12 2.28662e-12 1.85081e-12 1.43747e-12 1.07184e-12 7.67707e-13 5.28522e-13 3.49954e-13 2.23014e-13 1.36876e-13 8.09657e-14 4.61916e-14 2.54344e-14 1.35265e-14 6.95278e-15 3.45656e-15 1.66317e-15 7.75052e-16 3.50032e-16 1.53302e-16 6.51512e-17 2.68841e-17 1.07777e-17 4.2001e-18 1.592e-18 5.87236e-19 2.1091e-19 7.37932e-20 2.51645e-20 8.36799e-21 2.71467e-21 8.59555e-22 2.65755e-22 8.02666e-23 2.37005e-23 6.87436e-24 2.07336e-24 1.06553e-24 
1.13657e-23 2.17009e-23 7.01738e-23 2.36383e-22 7.82204e-22 2.52957e-21 7.98821e-21 2.46222e-20 7.40424e-20 2.17125e-19 6.2059e-19 1.72803e-18 4.68522e-18 1.23626e-17 3.17287e-17 7.91627e-17 1.91894e-16 4.51667e-16 1.03164e-15 2.28516e-15 4.90579e-15 1.02004e-14 2.05281e-14 3.99585e-14 7.51785e-14 1.36614e-13 2.3961e-13 4.05332e-13 6.60846e-13 1.03768e-12 1.56819e-12 2.27934e-12 3.18425e-12 4.27292e-12 5.50441e-12 6.80363e-12 8.06522e-12 9.16585e-12 9.9835e-12 1.04198e-11 1.04198e-11 9.9835e-12 9.16585e-12 8.06522e-12 6.80363e-12 5.50441e-12 4.27292e-12 3.18425e-12 2.27934e-12 1.56819e-12 1.03768e-12 6.60846e-13 4.05332e-13 2.3961e-13 1.36614e-13 7.51785e-14 3.99585e-14 2.05281e-14 1.02004e-14 4.90579e-15 2.28516e-15 1.03164e-15 4.51667e-16 1.91894e-16 7.91627e-17 3.17287e-17 1.23626e-17 4.68522e-18 1.72803e-18 6.2059e-19 2.17125e-19 7.40424e-20 2.46222e-20 7.98821e-21 2.52956e-21 7.82177e-22 2.36278e-22 6.97786e-23 2.02436e-23 6.10719e-24 3.13922e-24 
3.2628e-23 6.22869e-23 2.01376e-22 6.78237e-22 2.24405e-21 7.25635e-21 2.29136e-20 7.06248e-20 2.12379e-19 6.22812e-19 1.78026e-18 4.95768e-18 1.34437e-17 3.54796e-17 9.10796e-17 2.27303e-16 5.51165e-16 1.29775e-15 2.96533e-15 6.57135e-15 1.41142e-14 2.93625e-14 5.9125e-14 1.15158e-13 2.16799e-13 3.94233e-13 6.91936e-13 1.17134e-12 1.91114e-12 3.00315e-12 4.54181e-12 6.60614e-12 9.23512e-12 1.24005e-11 1.59837e-11 1.97664e-11 2.34417e-11 2.66495e-11 2.90334e-11 3.03057e-11 3.03057e-11 2.90334e-11 2.66495e-11 2.34417e-11 1.97664e-11 1.59837e-11 1.24005e-11 9.23512e-12 6.60614e-12 4.54181e-12 3.00315e-12 1.91114e-12 1.17134e-12 6.91936e-13 3.94233e-13 2.16799e-13 1.15158e-13 5.9125e-14 2.93625e-14 1.41142e-14 6.57135e-15 2.96533e-15 1.29775e-15 5.51165e-16 2.27303e-16 9.10796e-17 3.54796e-17 1.34437e-17 4.95768e-18 1.78026e-18 6.22812e-19 2.12379e-19 7.06248e-20 2.29136e-20 7.25633e-21 2.24397e-21 6.77936e-22 2.00241e-22 5.81026e-23 1.75327e-23 9.01391e-24 
9.12464e-23 1.74164e-22 5.62979e-22 1.89588e-21 6.27222e-21 2.02806e-20 6.40385e-20 1.97381e-19 5.93574e-19 1.74081e-18 4.9765e-18 1.38606e-17 3.75928e-17 9.92347e-17 2.54815e-16 6.3613e-16 1.54304e-15 3.63468e-15 8.30892e-15 1.84223e-14 3.95897e-14 8.24092e-14 1.66047e-13 3.23631e-13 6.09712e-13 1.10955e-12 1.94894e-12 3.30192e-12 5.39176e-12 8.47955e-12 1.28345e-11 1.86829e-11 2.6138e-11 3.51219e-11 4.53002e-11 5.60533e-11 6.65074e-11 7.56366e-11 8.24235e-11 8.60467e-11 8.60467e-11 8.24235e-11 7.56366e-11 6.65074e-11 5.60533e-11 4.53002e-11 3.51219e-11 2.6138e-11 1.86829e-11 1.28345e-11 8.47955e-12 5.39176e-12 3.30192e-12 1.94894e-12 1.10955e-12 6.09712e-13 3.23631e-13 1.66047e-13 8.24092e-14 3.95897e-14 1.84223e-14 8.30892e-15 3.63468e-15 1.54304e-15 6.3613e-16 2.54815e-16 9.92347e-17 3.75928e-17 1.38606e-17 4.9765e-18 1.74081e-18 5.93574e-19 1.97381e-19 6.40385e-20 2.02805e-20 6.272e-21 1.89504e-21 5.59804e-22 1.6246e-22 4.90329e-23 2.52131e-23 
2.48459e-22 4.74177e-22 1.53255e-21 5.16047e-21 1.70715e-20 5.51968e-20 1.74291e-19 5.37221e-19 1.61567e-18 4.73888e-18 1.35492e-17 3.77444e-17 1.02394e-16 2.70366e-16 6.94466e-16 1.73433e-15 4.20866e-15 9.91819e-15 2.26848e-14 5.03242e-14 1.08214e-13 2.25406e-13 4.54495e-13 8.86495e-13 1.67147e-12 3.04428e-12 5.352e-12 9.07555e-12 1.48331e-11 2.33493e-11 3.53735e-11 5.15383e-11 7.21653e-11 9.70472e-11 1.25263e-10 1.55097e-10 1.84122e-10 2.09484e-10 2.28347e-10 2.38419e-10 2.38419e-10 2.28347e-10 2.09484e-10 1.84122e-10 1.55097e-10 1.25263e-10 9.70472e-11 7.21653e-11 5.15383e-11 3.53735e-11 2.33493e-11 1.48331e-11 9.07555e-12 5.352e-12 3.04428e-12 1.67147e-12 8.86495e-13 4.54495e-13 2.25406e-13 1.08214e-13 5.03242e-14 2.26848e-14 9.91819e-15 4.20866e-15 1.73433e-15 6.94466e-16 2.70366e-16 1.02394e-16 3.77444e-17 1.35492e-17 4.73888e-18 1.61567e-18 5.37221e-19 1.74291e-19 5.51967e-20 1.70709e-20 5.15817e-21 1.5239e-21 4.42305e-22 1.33518e-22 6.86662e-23 
6.5839e-22 1.25639e-21 4.06019e-21 1.36707e-20 4.52227e-20 1.46217e-19 4.61714e-19 1.42325e-18 4.2808e-18 1.25577e-17 3.5911e-17 1.00061e-16 2.71523e-16 7.17172e-16 1.84282e-15 4.6041e-15 1.11779e-14 2.63558e-14 6.03155e-14 1.33889e-13 2.88104e-13 6.00553e-13 1.21188e-12 2.36577e-12 4.46458e-12 8.13899e-12 1.43226e-11 2.43115e-11 3.97753e-11 6.26757e-11 9.50483e-11 1.38621e-10 1.94287e-10 2.6151e-10 3.3782e-10 4.18582e-10 4.97218e-10 5.65974e-10 6.17135e-10 6.44464e-10 6.44464e-10 6.17135e-10 5.65974e-10 4.97218e-10 4.18582e-10 3.3782e-10 2.6151e-10 1.94287e-10 1.38621e-10 9.50483e-11 6.26757e-11 3.97753e-11 2.43115e-11 1.43226e-11 8.13899e-12 4.46458e-12 2.36577e-12 1.21188e-12 6.00553e-13 2.88104e-13 1.33889e-13 6.03155e-14 2.63558e-14 1.11779e-14 4.6041e-15 1.84282e-15 7.17172e-16 2.71523e-16 1.00061e-16 3.5911e-17 1.25577e-17 4.2808e-18 1.42325e-18 4.61713e-19 1.46217e-19 4.52211e-20 1.36646e-20 4.03726e-21 1.17192e-21 3.53815e-22 1.81986e-22 
1.69696e-21 3.23798e-21 1.04631e-20 3.5228e-20 1.16533e-19 3.76793e-19 1.18989e-18 3.66822e-18 1.10347e-17 3.23762e-17 9.26065e-17 2.58106e-16 7.00611e-16 1.8512e-15 4.75877e-15 1.18949e-14 2.8894e-14 6.81676e-14 1.56102e-13 3.46761e-13 7.46729e-13 1.55784e-12 3.14637e-12 6.14791e-12 1.16135e-11 2.11934e-11 3.73352e-11 6.34437e-11 1.03915e-10 1.63931e-10 2.48885e-10 3.63384e-10 5.09853e-10 6.86955e-10 8.88231e-10 1.10147e-09 1.30929e-09 1.49114e-09 1.62653e-09 1.69887e-09 1.69887e-09 1.62653e-09 1.49114e-09 1.3093e-09 1.10147e-09 8.88231e-10 6.86955e-10 5.09853e-10 3.63384e-10 2.48885e-10 1.63931e-10 1.03915e-10 6.34437e-11 3.73352e-11 2.11934e-11 1.16135e-11 6.14791e-12 3.14637e-12 1.55784e-12 7.46729e-13 3.46761e-13 1.56102e-13 6.81676e-14 2.8894e-14 1.18949e-14 4.75877e-15 1.8512e-15 7.00611e-16 2.58106e-16 9.26065e-17 3.23762e-17 1.10347e-17 3.66822e-18 1.18988e-18 3.76792e-19 1.16529e-19 3.52123e-20 1.0404e-20 3.02024e-21 9.11954e-22 4.69117e-22 
4.25188e-21 8.11256e-21 2.62132e-20 8.82556e-20 2.91954e-19 9.44046e-19 2.98151e-18 9.19278e-18 2.76586e-17 8.11689e-17 2.32232e-16 6.47462e-16 1.75813e-15 4.6474e-15 1.19524e-14 2.9892e-14 7.26534e-14 1.71517e-13 3.9305e-13 8.73787e-13 1.88323e-12 3.93237e-12 7.94992e-12 1.55499e-11 2.94059e-11 5.37239e-11 9.47547e-11 1.61214e-10 2.64386e-10 4.17607e-10 6.34826e-10 9.2803e-10 1.30365e-09 1.75847e-09 2.27606e-09 2.82507e-09 3.36068e-09 3.82974e-09 4.17918e-09 4.36598e-09 4.36598e-09 4.17918e-09 3.82974e-09 3.36068e-09 2.82507e-09 2.27606e-09 1.75847e-09 1.30365e-09 9.2803e-10 6.34826e-10 4.17607e-10 2.64386e-10 1.61214e-10 9.47547e-11 5.37239e-11 2.94059e-11 1.55499e-11 7.94992e-12 3.93237e-12 1.88323e-12 8.73787e-13 3.9305e-13 1.71517e-13 7.26534e-14 2.9892e-14 1.19524e-14 4.6474e-15 1.75813e-15 6.47462e-16 2.32232e-16 8.11689e-17 2.76586e-17 9.19278e-18 2.98151e-18 9.44043e-19 2.91944e-19 8.82162e-20 2.60651e-20 7.56695e-21 2.28502e-21 1.17554e-21 
1.03507e-20 1.97484e-20 6.38093e-20 2.14839e-19 7.10736e-19 2.2984e-18 7.25983e-18 2.23878e-17 6.73733e-17 1.9777e-16 5.66013e-16 1.57861e-15 4.28837e-15 1.13411e-14 2.9183e-14 7.30269e-14 1.7761e-13 4.19595e-13 9.62302e-13 2.14112e-12 4.6189e-12 9.65431e-12 1.95385e-11 3.82602e-11 7.24394e-11 1.32512e-10 2.34022e-10 3.98701e-10 6.54765e-10 1.03568e-09 1.57661e-09 2.30799e-09 3.2465e-09 4.3847e-09 5.68191e-09 7.05975e-09 8.40555e-09 9.58526e-09 1.04648e-08 1.09351e-08 1.09351e-08 1.04648e-08 9.58527e-09 8.40556e-09 7.05976e-09 5.68192e-09 4.3847e-09 3.2465e-09 2.30799e-09 1.57661e-09 1.03568e-09 6.54765e-10 3.98701e-10 2.34022e-10 1.32512e-10 7.24394e-11 3.82602e-11 1.95385e-11 9.65431e-12 4.6189e-12 2.14112e-12 9.62302e-13 4.19595e-13 1.7761e-13 7.30269e-14 2.9183e-14 1.13411e-14 4.28837e-15 1.57861e-15 5.66013e-16 1.9777e-16 6.73733e-17 2.23878e-17 7.25983e-18 2.2984e-18 7.10711e-19 2.14743e-19 6.34487e-20 1.84201e-20 5.56269e-21 2.86193e-21 
2.44676e-20 4.66816e-20 1.50835e-19 5.07869e-19 1.68028e-18 5.43444e-18 1.71682e-17 5.29541e-17 1.59399e-16 4.68048e-16 1.34001e-15 3.73882e-15 1.01614e-14 2.68868e-14 6.9226e-14 1.73342e-13 4.21891e-13 9.97482e-13 2.2896e-12 5.09911e-12 1.10111e-11 2.30403e-11 4.66837e-11 9.15292e-11 1.73524e-10 3.17862e-10 5.62172e-10 9.59204e-10 1.57768e-09 2.49941e-09 3.8108e-09 5.58724e-09 7.87103e-09 1.06457e-08 1.38134e-08 1.71831e-08 2.04789e-08 2.33712e-08 2.55292e-08 2.66839e-08 2.66839e-08 2.55292e-08 2.33712e-08 2.0479e-08 1.71832e-08 1.38134e-08 1.06457e-08 7.87104e-09 5.58725e-09 3.8108e-09 2.49941e-09 1.57768e-09 9.59204e-10 5.62172e-10 3.17862e-10 1.73524e-10 9.15292e-11 4.66837e-11 2.30403e-11 1.10111e-11 5.09911e-12 2.2896e-12 9.97482e-13 4.21891e-13 1.73342e-13 6.9226e-14 2.68868e-14 1.01614e-14 3.73882e-15 1.34001e-15 4.68048e-16 1.59399e-16 5.29541e-17 1.71682e-17 5.43442e-18 1.68023e-18 5.07642e-19 1.49982e-19 4.35416e-20 1.31495e-20 6.76554e-21 
5.61293e-20 1.0709e-19 3.46036e-19 1.16521e-18 3.85553e-18 1.24716e-17 3.94077e-17 1.21579e-16 3.66078e-16 1.07529e-15 3.07975e-15 8.5968e-15 2.33763e-14 6.18891e-14 1.59449e-13 3.99545e-13 9.73199e-13 2.30293e-12 5.29106e-12 1.17956e-11 2.54999e-11 5.34208e-11 1.08378e-10 2.12778e-10 4.03973e-10 7.41128e-10 1.31285e-09 2.24376e-09 3.69676e-09 5.86672e-09 8.96049e-09 1.31603e-08 1.85708e-08 2.51576e-08 3.26918e-08 4.07206e-08 4.85854e-08 5.5496e-08 6.06572e-08 6.34203e-08 6.34204e-08 6.06574e-08 5.54962e-08 4.85857e-08 4.07208e-08 3.26919e-08 2.51577e-08 1.85708e-08 1.31603e-08 8.9605e-09 5.86672e-09 3.69677e-09 2.24376e-09 1.31285e-09 7.41128e-10 4.03973e-10 2.12778e-10 1.08378e-10 5.34208e-11 2.54999e-11 1.17956e-11 5.29106e-12 2.30293e-12 9.73199e-13 3.99545e-13 1.59449e-13 6.18891e-14 2.33763e-14 8.5968e-15 3.07975e-15 1.07529e-15 3.66078e-16 1.21579e-16 3.94076e-17 1.24716e-17 3.8554e-18 1.16469e-18 3.4408e-19 9.98863e-20 3.01655e-20 1.55207e-20 
1.24884e-19 2.38274e-19 7.69982e-19 2.59304e-18 8.5813e-18 2.77634e-17 8.77467e-17 2.70789e-16 8.15618e-16 2.39665e-15 6.86729e-15 1.91789e-14 5.21803e-14 1.38235e-13 3.56393e-13 8.93734e-13 2.17879e-12 5.16059e-12 1.18687e-11 2.64889e-11 5.73329e-11 1.20265e-10 2.44328e-10 4.80401e-10 9.13514e-10 1.67873e-09 2.97895e-09 5.10053e-09 8.41938e-09 1.33872e-08 2.04866e-08 3.0147e-08 4.26217e-08 5.78434e-08 7.52924e-08 9.39245e-08 1.12208e-07 1.28297e-07 1.40326e-07 1.46771e-07 1.46771e-07 1.40327e-07 1.28298e-07 1.12209e-07 9.39256e-08 7.52932e-08 5.78439e-08 4.26219e-08 3.01471e-08 2.04867e-08 1.33872e-08 8.41939e-09 5.10053e-09 2.97895e-09 1.67873e-09 9.13514e-10 4.80401e-10 2.44328e-10 1.20265e-10 5.73329e-11 2.64889e-11 1.18687e-11 5.16059e-12 2.17879e-12 8.93734e-13 3.56393e-13 1.38235e-13 5.21803e-14 1.91789e-14 6.86729e-15 2.39665e-15 8.15618e-16 2.70789e-16 8.77466e-17 2.77633e-17 8.58099e-18 2.59188e-18 7.65629e-19 2.22247e-19 6.71162e-20 3.45324e-20 