<?xml version="1.0"?>
<VTKFile type="StructuredGrid" version="0.1">
<StructuredGrid WholeExtent="0 100 0 100 0 0">
<Piece Extent="0 100 0 100 0 0">
<Points>
<DataArray type="Float64" NumberOfComponents="3" format="ascii">
-15 -15 0
-15 -14.7 0
-15 -14.4 0
-15 -14.1 0
-15 -13.8 0
-15 -13.5 0
-15 -13.2 0
-15 -12.9 0
-15 -12.6 0
-15 -12.3 0
-15 -12 0
-15 -11.7 0
-15 -11.4 0
-15 -11.1 0
-15 -10.8 0
-15 -10.5 0
-15 -10.2 0
-15 -9.9 0
-15 -9.6 0
-15 -9.3 0
-15 -9 0
-15 -8.7 0
-15 -8.4 0
-15 -8.1 0
-15 -7.8 0
-15 -7.5 0
-15 -7.2 0
-15 -6.9 0
-15 -6.6 0
-15 -6.3 0
-15 -6 0
-15 -5.7 0
-15 -5.4 0
-15 -5.1 0
-15 -4.8 0
-15 -4.5 0
-15 -4.2 0
-15 -3.9 0
-15 -3.6 0
-15 -3.3 0
-15 -3 0
-15 -2.7 0
-15 -2.4 0
-15 -2.1 0
-15 -1.8 0
-15 -1.5 0
-15 -1.2 0
-15 -0.9 0
-15 -0.6 0
-15 -0.3 0
-15 0 0
-15 0.3 0
-15 0.6 0
-15 0.9 0
-15 1.2 0
-15 1.5 0
-15 1.8 0
-15 2.1 0
-15 2.4 0
-15 2.7 0
-15 3 0
-15 3.3 0
-15 3.6 0
-15 3.9 0
-15 4.2 0
-15 4.5 0
-15 4.8 0
-15 5.1 0
-15 5.4 0
-15 5.7 0
-15 6 0
-15 6.3 0
-15 6.6 0
-15 6.9 0
-15 7.2 0
-15 7.5 0
-15 7.8 0
-15 8.1 0
-15 8.4 0
-15 8.7 0
-15 9 0
-15 9.3 0
-15 9.6 0
-15 9.9 0
-15 10.2 0
-15 10.5 0
-15 10.8 0
-15 11.1 0
-15 11.4 0
-15 11.7 0
-15 12 0
-15 12.3 0
-15 12.6 0
-15 12.9 0
-15 13.2 0
-15 13.5 0
-15 13.8 0
-15 14.1 0
-15 14.4 0
-15 14.7 0
-15 15 0
-14.7 -15 0
-14.7 -14.7 0
-14.7 -14.4 0
-14.7 -14.1 0
-14.7 -13.8 0
-14.7 -13.5 0
-14.7 -13.2 0
-14.7 -12.9 0
-14.7 -12.6 0
-14.7 -12.3 0
-14.7 -12 0
-14.7 -11.7 0
-14.7 -11.4 0
-14.7 -11.1 0
-14.7 -10.8 0
-14.7 -10.5 0
-14.7 -10.2 0
-14.7 -9.9 0
-14.7 -9.6 0
-14.7 -9.3 0
-14.7 -9 0
-14.7 -8.7 0
-14.7 -8.4 0
-14.7 -8.1 0
-14.7 -7.8 0
-14.7 -7.5 0
-14.7 -7.2 0
-14.7 -6.9 0
-14.7 -6.6 0
-14.7 -6.3 0
-14.7 -6 0
-14.7 -5.7 0
-14.7 -5.4 0
-14.7 -5.1 0
-14.7 -4.8 0
-14.7 -4.5 0
-14.7 -4.2 0
-14.7 -3.9 0
-14.7 -3.6 0
-14.7 -3.3 0
-14.7 -3 0
-14.7 -2.7 0
-14.7 -2.4 0
-14.7 -2.1 0
-14.7 -1.8 0
-14.7 -1.5 0
-14.7 -1.2 0
-14.7 -0.9 0
-14.7 -0.6 0
-14.7 -0.3 0
-14.7 0 0
-14.7 0.3 0
-14.7 0.6 0
-14.7 0.9 0
-14.7 1.2 0
-14.7 1.5 0
-14.7 1.8 0
-14.7 2.1 0
-14.7 2.4 0
-14.7 2.7 0
-14.7 3 0
-14.7 3.3 0
-14.7 3.6 0
-14.7 3.9 0
-14.7 4.2 0
-14.7 4.5 0
-14.7 4.8 0
-14.7 5.1 0
-14.7 5.4 0
-14.7 5.7 0
-14.7 6 0
-14.7 6.3 0
-14.7 6.6 0
-14.7 6.9 0
-14.7 7.2 0
-14.7 7.5 0
-14.7 7.8 0
-14.7 8.1 0
-14.7 8.4 0
-14.7 8.7 0
-14.7 9 0
-14.7 9.3 0
-14.7 9.6 0
-14.7 9.9 0
-14.7 10.2 0
-14.7 10.5 0
-14.7 10.8 0
-14.7 11.1 0
-14.7 11.4 0
-14.7 11.7 0
-14.7 12 0
-14.7 12.3 0
-14.7 12.6 0
-14.7 12.9 0
-14.7 13.2 0
-14.7 13.5 0
-14.7 13.8 0
-14.7 14.1 0
-14.7 14.4 0
-14.7 14.7 0
-14.7 15 0
-14.4 -15 0
-14.4 -14.7 0
-14.4 -14.4 0
-14.4 -14.1 0
-14.4 -13.8 0
-14.4 -13.5 0
-14.4 -13.2 0
-14.4 -12.9 0
-14.4 -12.6 0
-14.4 -12.3 0
-14.4 -12 0
-14.4 -11.7 0
-14.4 -11.4 0
-14.4 -11.1 0
-14.4 -10.8 0
-14.4 -10.5 0
-14.4 -10.2 0
-14.4 -9.9 0
-14.4 -9.6 0
-14.4 -9.3 0
-14.4 -9 0
-14.4 -8.7 0
-14.4 -8.4 0
-14.4 -8.1 0
-14.4 -7.8 0
-14.4 -7.5 0
-14.4 -7.2 0
-14.4 -6.9 0
-14.4 -6.6 0
-14.4 -6.3 0
-14.4 -6 0
-14.4 -5.7 0
-14.4 -5.4 0
-14.4 -5.1 0
-14.4 -4.8 0
-14.4 -4.5 0
-14.4 -4.2 0
-14.4 -3.9 0
-14.4 -3.6 0
-14.4 -3.3 0
-14.4 -3 0
-14.4 -2.7 0
-14.4 -2.4 0
-14.4 -2.1 0
-14.4 -1.8 0
-14.4 -1.5 0
-14.4 -1.2 0
-14.4 -0.9 0
-14.4 -0.6 0
-14.4 -0.3 0
-14.4 0 0
-14.4 0.3 0
-14.4 0.6 0
-14.4 0.9 0
-14.4 1.2 0
-14.4 1.5 0
-14.4 1.8 0
-14.4 2.1 0
-14.4 2.4 0
-14.4 2.7 0
-14.4 3 0
-14.4 3.3 0
-14.4 3.6 0
-14.4 3.9 0
-14.4 4.2 0
-14.4 4.5 0
-14.4 4.8 0
-14.4 5.1 0
-14.4 5.4 0
-14.4 5.7 0
-14.4 6 0
-14.4 6.3 0
-14.4 6.6 0
-14.4 6.9 0
-14.4 7.2 0
-14.4 7.5 0
-14.4 7.8 0
-14.4 8.1 0
-14.4 8.4 0
-14.4 8.7 0
-14.4 9 0
-14.4 9.3 0
-14.4 9.6 0
-14.4 9.9 0
-14.4 10.2 0
-14.4 10.5 0
-14.4 10.8 0
-14.4 11.1 0
-14.4 11.4 0
-14.4 11.7 0
-14.4 12 0
-14.4 12.3 0
-14.4 12.6 0
-14.4 12.9 0
-14.4 13.2 0
-14.4 13.5 0
-14.4 13.8 0
-14.4 14.1 0
-14.4 14.4 0
-14.4 14.7 0
-14.4 15 0
-14.1 -15 0
-14.1 -14.7 0
-14.1 -14.4 0
-14.1 -14.1 0
-14.1 -13.8 0
-14.1 -13.5 0
-14.1 -13.2 0
-14.1 -12.9 0
-14.1 -12.6 0
-14.1 -12.3 0
-14.1 -12 0
-14.1 -11.7 0
-14.1 -11.4 0
-14.1 -11.1 0
-14.1 -10.8 0
-14.1 -10.5 0
-14.1 -10.2 0
-14.1 -9.9 0
-14.1 -9.6 0
-14.1 -9.3 0
-14.1 -9 0
-14.1 -8.7 0
-14.1 -8.4 0
-14.1 -8.1 0
-14.1 -7.8 0
-14.1 -7.5 0
-14.1 -7.2 0
-14.1 -6.9 0
-14.1 -6.6 0
-14.1 -6.3 0
-14.1 -6 0
-14.1 -5.7 0
-14.1 -5.4 0
-14.1 -5.1 0
-14.1 -4.8 0
-14.1 -4.5 0
-14.1 -4.2 0
-14.1 -3.9 0
-14.1 -3.6 0
-14.1 -3.3 0
-14.1 -3 0
-14.1 -2.7 0
-14.1 -2.4 0
-14.1 -2.1 0
-14.1 -1.8 0
-14.1 -1.5 0
-14.1 -1.2 0
-14.1 -0.9 0
-14.1 -0.6 0
-14.1 -0.3 0
-14.1 0 0
-14.1 0.3 0
-14.1 0.6 0
-14.1 0.9 0
-14.1 1.2 0
-14.1 1.5 0
-14.1 1.8 0
-14.1 2.1 0
-14.1 2.4 0
-14.1 2.7 0
-14.1 3 0
-14.1 3.3 0
-14.1 3.6 0
-14.1 3.9 0
-14.1 4.2 0
-14.1 4.5 0
-14.1 4.8 0
-14.1 5.1 0
-14.1 5.4 0
-14.1 5.7 0
-14.1 6 0
-14.1 6.3 0
-14.1 6.6 0
-14.1 6.9 0
-14.1 7.2 0
-14.1 7.5 0
-14.1 7.8 0
-14.1 8.1 0
-14.1 8.4 0
-14.1 8.7 0
-14.1 9 0
-14.1 9.3 0
-14.1 9.6 0
-14.1 9.9 0
-14.1 10.2 0
-14.1 10.5 0
-14.1 10.8 0
-14.1 11.1 0
-14.1 11.4 0
-14.1 11.7 0
-14.1 12 0
-14.1 12.3 0
-14.1 12.6 0
-14.1 12.9 0
-14.1 13.2 0
-14.1 13.5 0
-14.1 13.8 0
-14.1 14.1 0
-14.1 14.4 0
-14.1 14.7 0
-14.1 15 0
-13.8 -15 0
-13.8 -14.7 0
-13.8 -14.4 0
-13.8 -14.1 0
-13.8 -13.8 0
-13.8 -13.5 0
-13.8 -13.2 0
-13.8 -12.9 0
-13.8 -12.6 0
-13.8 -12.3 0
-13.8 -12 0
-13.8 -11.7 0
-13.8 -11.4 0
-13.8 -11.1 0
-13.8 -10.8 0
-13.8 -10.5 0
-13.8 -10.2 0
-13.8 -9.9 0
-13.8 -9.6 0
-13.8 -9.3 0
-13.8 -9 0
-13.8 -8.7 0
-13.8 -8.4 0
-13.8 -8.1 0
-13.8 -7.8 0
-13.8 -7.5 0
-13.8 -7.2 0
-13.8 -6.9 0
-13.8 -6.6 0
-13.8 -6.3 0
-13.8 -6 0
-13.8 -5.7 0
-13.8 -5.4 0
-13.8 -5.1 0
-13.8 -4.8 0
-13.8 -4.5 0
-13.8 -4.2 0
-13.8 -3.9 0
-13.8 -3.6 0
-13.8 -3.3 0
-13.8 -3 0
-13.8 -2.7 0
-13.8 -2.4 0
-13.8 -2.1 0
-13.8 -1.8 0
-13.8 -1.5 0
-13.8 -1.2 0
-13.8 -0.9 0
-13.8 -0.6 0
-13.8 -0.3 0
-13.8 0 0
-13.8 0.3 0
-13.8 0.6 0
-13.8 0.9 0
-13.8 1.2 0
-13.8 1.5 0
-13.8 1.8 0
-13.8 2.1 0
-13.8 2.4 0
-13.8 2.7 0
-13.8 3 0
-13.8 3.3 0
-13.8 3.6 0
-13.8 3.9 0
-13.8 4.2 0
-13.8 4.5 0
-13.8 4.8 0
-13.8 5.1 0
-13.8 5.4 0
-13.8 5.7 0
-13.8 6 0
-13.8 6.3 0
-13.8 6.6 0
-13.8 6.9 0
-13.8 7.2 0
-13.8 7.5 0
-13.8 7.8 0
-13.8 8.1 0
-13.8 8.4 0
-13.8 8.7 0
-13.8 9 0
-13.8 9.3 0
-13.8 9.6 0
-13.8 9.9 0
-13.8 10.2 0
-13.8 10.5 0
-13.8 10.8 0
-13.8 11.1 0
-13.8 11.4 0
-13.8 11.7 0
-13.8 12 0
-13.8 12.3 0
-13.8 12.6 0
-13.8 12.9 0
-13.8 13.2 0
-13.8 13.5 0
-13.8 13.8 0
-13.8 14.1 0
-13.8 14.4 0
-13.8 14.7 0
-13.8 15 0
-13.5 -15 0
-13.5 -14.7 0
-13.5 -14.4 0
-13.5 -14.1 0
-13.5 -13.8 0
-13.5 -13.5 0
-13.5 -13.2 0
-13.5 -12.9 0
-13.5 -12.6 0
-13.5 -12.3 0
-13.5 -12 0
-13.5 -11.7 0
-13.5 -11.4 0
-13.5 -11.1 0
-13.5 -10.8 0
-13.5 -10.5 0
-13.5 -10.2 0
-13.5 -9.9 0
-13.5 -9.6 0
-13.5 -9.3 0
-13.5 -9 0
-13.5 -8.7 0
-13.5 -8.4 0
-13.5 -8.1 0
-13.5 -7.8 0
-13.5 -7.5 0
-13.5 -7.2 0
-13.5 -6.9 0
-13.5 -6.6 0
-13.5 -6.3 0
-13.5 -6 0
-13.5 -5.7 0
-13.5 -5.4 0
-13.5 -5.1 0
-13.5 -4.8 0
-13.5 -4.5 0
-13.5 -4.2 0
-13.5 -3.9 0
-13.5 -3.6 0
-13.5 -3.3 0
-13.5 -3 0
-13.5 -2.7 0
-13.5 -2.4 0
-13.5 -2.1 0
-13.5 -1.8 0
-13.5 -1.5 0
-13.5 -1.2 0
-13.5 -0.9 0
-13.5 -0.6 0
-13.5 -0.3 0
-13.5 0 0
-13.5 0.3 0
-13.5 0.6 0
-13.5 0.9 0
-13.5 1.2 0
-13.5 1.5 0
-13.5 1.8 0
-13.5 2.1 0
-13.5 2.4 0
-13.5 2.7 0
-13.5 3 0
-13.5 3.3 0
-13.5 3.6 0
-13.5 3.9 0
-13.5 4.2 0
-13.5 4.5 0
-13.5 4.8 0
-13.5 5.1 0
-13.5 5.4 0
-13.5 5.7 0
-13.5 6 0
-13.5 6.3 0
-13.5 6.6 0
-13.5 6.9 0
-13.5 7.2 0
-13.5 7.5 0
-13.5 7.8 0
-13.5 8.1 0
-13.5 8.4 0
-13.5 8.7 0
-13.5 9 0
-13.5 9.3 0
-13.5 9.6 0
-13.5 9.9 0
-13.5 10.2 0
-13.5 10.5 0
-13.5 10.8 0
-13.5 11.1 0
-13.5 11.4 0
-13.5 11.7 0
-13.5 12 0
-13.5 12.3 0
-13.5 12.6 0
-13.5 12.9 0
-13.5 13.2 0
-13.5 13.5 0
-13.5 13.8 0
-13.5 14.1 0
-13.5 14.4 0
-13.5 14.7 0
-13.5 15 0
-13.2 -15 0
-13.2 -14.7 0
-13.2 -14.4 0
-13.2 -14.1 0
-13.2 -13.8 0
-13.2 -13.5 0
-13.2 -13.2 0
-13.2 -12.9 0
-13.2 -12.6 0
-13.2 -12.3 0
-13.2 -12 0
-13.2 -11.7 0
-13.2 -11.4 0
-13.2 -11.1 0
-13.2 -10.8 0
-13.2 -10.5 0
-13.2 -10.2 0
-13.2 -9.9 0
-13.2 -9.6 0
-13.2 -9.3 0
-13.2 -9 0
-13.2 -8.7 0
-13.2 -8.4 0
-13.2 -8.1 0
-13.2 -7.8 0
-13.2 -7.5 0
-13.2 -7.2 0
-13.2 -6.9 0
-13.2 -6.6 0
-13.2 -6.3 0
-13.2 -6 0
-13.2 -5.7 0
-13.2 -5.4 0
-13.2 -5.1 0
-13.2 -4.8 0
-13.2 -4.5 0
-13.2 -4.2 0
-13.2 -3.9 0
-13.2 -3.6 0
-13.2 -3.3 0
-13.2 -3 0
-13.2 -2.7 0
-13.2 -2.4 0
-13.2 -2.1 0
-13.2 -1.8 0
-13.2 -1.5 0
-13.2 -1.2 0
-13.2 -0.9 0
-13.2 -0.6 0
-13.2 -0.3 0
-13.2 0 0
-13.2 0.3 0
-13.2 0.6 0
-13.2 0.9 0
-13.2 1.2 0
-13.2 1.5 0
-13.2 1.8 0
-13.2 2.1 0
-13.2 2.4 0
-13.2 2.7 0
-13.2 3 0
-13.2 3.3 0
-13.2 3.6 0
-13.2 3.9 0
-13.2 4.2 0
-13.2 4.5 0
-13.2 4.8 0
-13.2 5.1 0
-13.2 5.4 0
-13.2 5.7 0
-13.2 6 0
-13.2 6.3 0
-13.2 6.6 0
-13.2 6.9 0
-13.2 7.2 0
-13.2 7.5 0
-13.2 7.8 0
-13.2 8.1 0
-13.2 8.4 0
-13.2 8.7 0
-13.2 9 0
-13.2 9.3 0
-13.2 9.6 0
-13.2 9.9 0
-13.2 10.2 0
-13.2 10.5 0
-13.2 10.8 0
-13.2 11.1 0
-13.2 11.4 0
-13.2 11.7 0
-13.2 12 0
-13.2 12.3 0
-13.2 12.6 0
-13.2 12.9 0
-13.2 13.2 0
-13.2 13.5 0
-13.2 13.8 0
-13.2 14.1 0
-13.2 14.4 0
-13.2 14.7 0
-13.2 15 0
-12.9 -15 0
-12.9 -14.7 0
-12.9 -14.4 0
-12.9 -14.1 0
-12.9 -13.8 0
-12.9 -13.5 0
-12.9 -13.2 0
-12.9 -12.9 0
-12.9 -12.6 0
-12.9 -12.3 0
-12.9 -12 0
-12.9 -11.7 0
-12.9 -11.4 0
-12.9 -11.1 0
-12.9 -10.8 0
-12.9 -10.5 0
-12.9 -10.2 0
-12.9 -9.9 0
-12.9 -9.6 0
-12.9 -9.3 0
-12.9 -9 0
-12.9 -8.7 0
-12.9 -8.4 0
-12.9 -8.1 0
-12.9 -7.8 0
-12.9 -7.5 0
-12.9 -7.2 0
-12.9 -6.9 0
-12.9 -6.6 0
-12.9 -6.3 0
-12.9 -6 0
-12.9 -5.7 0
-12.9 -5.4 0
-12.9 -5.1 0
-12.9 -4.8 0
-12.9 -4.5 0
-12.9 -4.2 0
-12.9 -3.9 0
-12.9 -3.6 0
-12.9 -3.3 0
-12.9 -3 0
-12.9 -2.7 0
-12.9 -2.4 0
-12.9 -2.1 0
-12.9 -1.8 0
-12.9 -1.5 0
-12.9 -1.2 0
-12.9 -0.9 0
-12.9 -0.6 0
-12.9 -0.3 0
-12.9 0 0
-12.9 0.3 0
-12.9 0.6 0
-12.9 0.9 0
-12.9 1.2 0
-12.9 1.5 0
-12.9 1.8 0
-12.9 2.1 0
-12.9 2.4 0
-12.9 2.7 0
-12.9 3 0
-12.9 3.3 0
-12.9 3.6 0
-12.9 3.9 0
-12.9 4.2 0
-12.9 4.5 0
-12.9 4.8 0
-12.9 5.1 0
-12.9 5.4 0
-12.9 5.7 0
-12.9 6 0
-12.9 6.3 0
-12.9 6.6 0
-12.9 6.9 0
-12.9 7.2 0
-12.9 7.5 0
-12.9 7.8 0
-12.9 8.1 0
-12.9 8.4 0
-12.9 8.7 0
-12.9 9 0
-12.9 9.3 0
-12.9 9.6 0
-12.9 9.9 0
[...]
<PointData Scalars="scalars">
<DataArray type="Float64" Name="u" NumberOfComponents="1" format="ascii">
0 0 0 0 0 0 0 0 0 0 0 0 0 0 0 0 0 0 0 0 0 0 0 0 0 0 0 0 0 0 0 0 0 0 0 0 0 0 0 0 0 0 0 0 0 0 0 0 0 0 0 0 0 0 0 0 0 0 0 0 0 0 0 0 0 0 0 0 0 0 0 0 0 0 0 0 0 0 0 0 0 0 0 0 0 0 0 0 0 0 0 0 0 0 0 0 0 0 0 0 0 
2.46079e-11 2.55544e-11 2.84484e-11 3.34563e-11 4.08614e-11 5.10739e-11 6.46446e-11 8.22818e-11 1.04873e-10 1.33508e-10 1.69512e-10 2.1447e-10 2.70267e-10 3.39123e-10 4.23628e-10 5.26783e-10 6.52036e-10 8.03316e-10 9.8506e-10 1.20224e-09 1.46037e-09 1.7655e-09 2.12424e-09 2.54366e-09 3.0313e-09 3.59505e-09 4.24308e-09 4.98368e-09 5.8251e-09 6.77539e-09 7.84216e-09 9.03231e-09 1.03518e-08 1.18054e-08 1.33963e-08 1.51258e-08 1.69933e-08 1.89955e-08 2.11268e-08 2.33784e-08 2.57389e-08 2.81936e-08 3.07248e-08 3.33118e-08 3.59313e-08 3.85571e-08 4.11613e-08 4.37138e-08 4.61837e-08 4.85394e-08 5.07493e-08 5.27828e-08 5.46106e-08 5.62058e-08 5.75442e-08 5.86052e-08 5.93721e-08 5.98329e-08 5.99803e-08 5.98118e-08 5.93303e-08 5.85434e-08 5.74635e-08 5.61076e-08 5.44966e-08 5.26548e-08 5.06094e-08 4.83897e-08 4.60265e-08 4.35513e-08 4.09956e-08 3.83904e-08 3.57654e-08 3.31486e-08 3.05657e-08 2.80401e-08 2.55923e-08 2.32396e-08 2.09966e-08 1.88746e-08 1.68822e-08 1.5025e-08 1.33061e-08 1.17263e-08 1.02842e-08 8.97671e-09 7.79938e-09 6.74647e-09 5.81146e-09 4.98722e-09 4.26635e-09 3.64133e-09 3.10484e-09 2.64984e-09 2.26981e-09 1.95882e-09 1.71173e-09 1.52417e-09 1.39271e-09 1.31484e-09 1.28905e-09 
5.09749e-11 5.29366e-11 5.89352e-11 6.93155e-11 8.46655e-11 1.05836e-10 1.33971e-10 1.70539e-10 2.17382e-10 2.76765e-10 3.51434e-10 4.44683e-10 5.60428e-10 7.03276e-10 8.78609e-10 1.09266e-09 1.35261e-09 1.6666e-09 2.04387e-09 2.49475e-09 3.03071e-09 3.66435e-09 4.4094e-09 5.2806e-09 6.29362e-09 7.46493e-09 8.81151e-09 1.03507e-08 1.20996e-08 1.40751e-08 1.6293e-08 1.87677e-08 2.15118e-08 2.45352e-08 2.78446e-08 3.14429e-08 3.53286e-08 3.94953e-08 4.3931e-08 4.86179e-08 5.35319e-08 5.86426e-08 6.39132e-08 6.93006e-08 7.47561e-08 8.02254e-08 8.565e-08 9.09676e-08 9.61134e-08 1.01022e-07 1.05626e-07 1.09864e-07 1.13673e-07 1.16997e-07 1.19786e-07 1.21997e-07 1.23595e-07 1.24556e-07 1.24862e-07 1.24511e-07 1.23507e-07 1.21867e-07 1.19616e-07 1.1679e-07 1.13432e-07 1.09594e-07 1.05331e-07 1.00706e-07 9.5782e-08 9.06251e-08 8.5301e-08 7.98743e-08 7.44068e-08 6.8957e-08 6.35785e-08 5.83199e-08 5.32236e-08 4.83261e-08 4.36575e-08 3.92414e-08 3.50954e-08 3.12313e-08 2.76554e-08 2.43692e-08 2.13699e-08 1.8651e-08 1.6203e-08 1.4014e-08 1.20704e-08 1.03572e-08 8.85911e-09 7.56035e-09 6.44566e-09 5.50039e-09 4.71093e-09 4.06498e-09 3.55176e-09 3.16224e-09 2.88922e-09 2.72751e-09 2.67396e-09 
8.09498e-11 8.40679e-11 9.3603e-11 1.10104e-10 1.34507e-10 1.68168e-10 2.12905e-10 2.7106e-10 3.45566e-10 4.40032e-10 5.58834e-10 7.07224e-10 8.91442e-10 1.11884e-09 1.398e-09 1.73887e-09 2.15289e-09 2.6531e-09 3.25423e-09 3.97279e-09 4.82712e-09 5.83737e-09 7.02547e-09 8.41503e-09 1.00312e-08 1.19002e-08 1.40494e-08 1.65064e-08 1.9299e-08 2.24539e-08 2.59968e-08 2.99509e-08 3.43364e-08 3.91691e-08 4.44601e-08 5.02143e-08 5.64294e-08 6.30953e-08 7.0193e-08 7.7694e-08 8.55601e-08 9.37425e-08 1.02182e-07 1.10811e-07 1.1955e-07 1.28312e-07 1.37005e-07 1.45526e-07 1.53774e-07 1.61641e-07 1.69023e-07 1.75817e-07 1.81924e-07 1.87254e-07 1.91726e-07 1.95272e-07 1.97834e-07 1.99374e-07 1.99865e-07 1.99301e-07 1.9769e-07 1.95058e-07 1.91448e-07 1.86915e-07 1.8153e-07 1.75375e-07 1.68541e-07 1.61126e-07 1.53233e-07 1.44967e-07 1.36435e-07 1.2774e-07 1.18981e-07 1.10251e-07 1.01638e-07 9.32174e-08 8.50588e-08 7.72199e-08 6.97487e-08 6.26831e-08 5.6051e-08 4.98712e-08 4.41534e-08 3.89e-08 3.41062e-08 2.97615e-08 2.58506e-08 2.23541e-08 1.92502e-08 1.65149e-08 1.41234e-08 1.20506e-08 1.02718e-08 8.76364e-09 7.50428e-09 6.47398e-09 5.6555e-09 5.03435e-09 4.59902e-09 4.34118e-09 4.2558e-09 
1.16563e-10 1.21059e-10 1.34806e-10 1.58599e-10 1.93789e-10 2.42336e-10 3.06867e-10 3.90768e-10 4.98279e-10 6.34619e-10 8.06119e-10 1.02038e-09 1.28643e-09 1.61492e-09 2.01828e-09 2.51094e-09 3.10946e-09 3.83277e-09 4.70224e-09 5.74183e-09 6.97818e-09 8.44057e-09 1.01609e-08 1.21735e-08 1.45149e-08 1.72234e-08 2.03389e-08 2.39016e-08 2.7952e-08 3.25294e-08 3.76712e-08 4.34114e-08 4.97795e-08 5.67993e-08 6.44869e-08 7.28499e-08 8.18852e-08 9.15786e-08 1.01903e-07 1.12816e-07 1.24264e-07 1.36175e-07 1.48464e-07 1.6103e-07 1.7376e-07 1.86527e-07 1.99194e-07 2.11615e-07 2.23638e-07 2.35108e-07 2.45873e-07 2.5578e-07 2.64687e-07 2.72462e-07 2.78986e-07 2.84157e-07 2.87895e-07 2.9014e-07 2.90855e-07 2.9003e-07 2.87678e-07 2.83837e-07 2.78568e-07 2.71954e-07 2.64098e-07 2.55119e-07 2.45151e-07 2.34337e-07 2.22828e-07 2.10779e-07 1.98344e-07 1.85673e-07 1.72911e-07 1.60196e-07 1.47653e-07 1.35394e-07 1.23519e-07 1.12112e-07 1.01244e-07 9.09676e-08 8.13247e-08 7.23418e-08 6.4033e-08 5.64011e-08 4.94389e-08 4.31307e-08 3.74538e-08 3.23801e-08 2.78771e-08 2.391e-08 2.04424e-08 1.74376e-08 1.48598e-08 1.26746e-08 1.08502e-08 9.35802e-09 8.17276e-09 7.27337e-09 6.64311e-09 6.26985e-09 6.14625e-09 
1.60124e-10 1.66309e-10 1.85224e-10 2.17961e-10 2.66387e-10 3.33203e-10 4.22037e-10 5.37559e-10 6.85624e-10 8.73437e-10 1.10975e-09 1.40505e-09 1.77185e-09 2.22484e-09 2.78126e-09 3.46105e-09 4.28717e-09 5.28584e-09 6.48668e-09 7.92296e-09 9.63162e-09 1.16533e-08 1.40324e-08 1.68167e-08 2.00569e-08 2.38065e-08 2.8121e-08 3.30566e-08 3.86697e-08 4.50154e-08 5.2146e-08 6.01093e-08 6.89469e-08 7.86923e-08 8.93685e-08 1.00987e-07 1.13543e-07 1.27019e-07 1.41375e-07 1.56557e-07 1.72487e-07 1.89066e-07 2.06176e-07 2.23678e-07 2.41412e-07 2.59202e-07 2.76857e-07 2.94172e-07 3.10937e-07 3.26934e-07 3.41949e-07 3.5577e-07 3.68197e-07 3.79045e-07 3.88148e-07 3.95365e-07 4.0058e-07 4.03711e-07 4.04707e-07 4.03553e-07 4.00267e-07 3.94903e-07 3.87546e-07 3.78313e-07 3.67348e-07 3.54818e-07 3.4091e-07 3.25825e-07 3.09773e-07 2.92972e-07 2.75636e-07 2.57976e-07 2.40196e-07 2.22484e-07 2.05016e-07 1.8795e-07 1.71423e-07 1.55553e-07 1.40437e-07 1.26149e-07 1.12746e-07 1.00265e-07 8.87239e-08 7.81269e-08 6.84631e-08 5.97102e-08 5.18359e-08 4.48005e-08 3.85587e-08 3.30616e-08 2.8258e-08 2.40969e-08 2.0528e-08 1.75036e-08 1.49792e-08 1.29149e-08 1.12755e-08 1.00318e-08 9.16028e-09 8.6442e-09 8.47332e-09 
2.14323e-10 2.22616e-10 2.47977e-10 2.91877e-10 3.56824e-10 4.4645e-10 5.65637e-10 7.20667e-10 9.19422e-10 1.1716e-09 1.489e-09 1.88575e-09 2.3787e-09 2.9877e-09 3.73599e-09 4.6505e-09 5.76227e-09 7.10671e-09 8.72391e-09 1.06589e-08 1.29617e-08 1.56874e-08 1.88962e-08 2.26529e-08 2.70266e-08 3.20898e-08 3.79181e-08 4.45881e-08 5.21769e-08 6.07596e-08 7.04077e-08 8.1187e-08 9.31546e-08 1.06357e-07 1.20826e-07 1.36577e-07 1.53608e-07 1.71892e-07 1.9138e-07 2.11995e-07 2.33633e-07 2.56161e-07 2.79419e-07 3.03216e-07 3.27337e-07 3.51541e-07 3.75568e-07 3.99139e-07 4.21965e-07 4.43752e-07 4.64204e-07 4.83033e-07 4.99965e-07 5.14747e-07 5.27152e-07 5.36986e-07 5.44092e-07 5.48357e-07 5.49711e-07 5.48134e-07 5.4365e-07 5.36332e-07 5.263e-07 5.13711e-07 4.98764e-07 4.81687e-07 4.62736e-07 4.42186e-07 4.20325e-07 3.97448e-07 3.7385e-07 3.49818e-07 3.25629e-07 3.01541e-07 2.77793e-07 2.54599e-07 2.32145e-07 2.10592e-07 1.9007e-07 1.7068e-07 1.52498e-07 1.35573e-07 1.19929e-07 1.05571e-07 9.24817e-08 8.06311e-08 6.99742e-08 6.04565e-08 5.20156e-08 4.45844e-08 3.80933e-08 3.24722e-08 2.76527e-08 2.35698e-08 2.0163e-08 1.73777e-08 1.51663e-08 1.34889e-08 1.23137e-08 1.16179e-08 1.13875e-08 
2.82345e-10 2.93289e-10 3.26764e-10 3.84713e-10 4.70459e-10 5.88812e-10 7.46236e-10 9.51057e-10 1.21372e-09 1.54709e-09 1.9668e-09 2.49164e-09 3.14395e-09 3.95012e-09 4.94102e-09 6.15251e-09 7.62586e-09 9.40826e-09 1.15531e-08 1.41205e-08 1.71772e-08 2.07967e-08 2.50596e-08 3.00524e-08 3.58677e-08 4.26029e-08 5.03592e-08 5.92397e-08 6.93479e-08 8.07851e-08 9.3648e-08 1.08025e-07 1.23995e-07 1.4162e-07 1.60945e-07 1.81992e-07 2.04758e-07 2.2921e-07 2.55283e-07 2.82875e-07 3.11848e-07 3.42026e-07 3.73192e-07 4.05093e-07 4.37438e-07 4.69906e-07 5.02145e-07 5.33783e-07 5.64428e-07 5.93685e-07 6.21155e-07 6.4645e-07 6.692e-07 6.89063e-07 7.05733e-07 7.18948e-07 7.28496e-07 7.34224e-07 7.36039e-07 7.33911e-07 7.27876e-07 7.18032e-07 7.04539e-07 6.87613e-07 6.67519e-07 6.44568e-07 6.19104e-07 5.91498e-07 5.6214e-07 5.31426e-07 4.99753e-07 4.67508e-07 4.35063e-07 4.02767e-07 3.70937e-07 3.39862e-07 3.09791e-07 2.80937e-07 2.53475e-07 2.27539e-07 2.0323e-07 1.8061e-07 1.59713e-07 1.4054e-07 1.2307e-07 1.0726e-07 9.30491e-08 8.03625e-08 6.91161e-08 5.92191e-08 5.05775e-08 4.30971e-08 3.6686e-08 3.12565e-08 2.67275e-08 2.30258e-08 2.00876e-08 1.78593e-08 1.62984e-08 1.53743e-08 1.50684e-08 
3.67988e-10 3.8228e-10 4.25997e-10 5.01688e-10 6.13703e-10 7.68347e-10 9.74094e-10 1.24186e-09 1.58536e-09 2.02146e-09 2.5707e-09 3.25775e-09 4.112e-09 5.16814e-09 6.4668e-09 8.0552e-09 9.98774e-09 1.23266e-08 1.51423e-08 1.85142e-08 2.25304e-08 2.72884e-08 3.28945e-08 3.94637e-08 4.71187e-08 5.59888e-08 6.62084e-08 7.79151e-08 9.12466e-08 1.06338e-07 1.2332e-07 1.42309e-07 1.63413e-07 1.86715e-07 2.12277e-07 2.40131e-07 2.70274e-07 3.02664e-07 3.37217e-07 3.738e-07 4.12232e-07 4.52277e-07 4.93652e-07 5.36018e-07 5.78992e-07 6.22143e-07 6.65005e-07 7.0708e-07 7.47847e-07 7.86777e-07 8.23337e-07 8.5701e-07 8.873e-07 9.13749e-07 9.35948e-07 9.53545e-07 9.66258e-07 9.73881e-07 9.76289e-07 9.73444e-07 9.65393e-07 9.52269e-07 9.34285e-07 9.11731e-07 8.84962e-07 8.54394e-07 8.20488e-07 7.83741e-07 7.44673e-07 7.03814e-07 6.61693e-07 6.18827e-07 5.75712e-07 5.3281e-07 4.90546e-07 4.493e-07 4.09405e-07 3.71142e-07 3.3474e-07 3.00378e-07 2.68185e-07 2.38244e-07 2.10596e-07 1.85242e-07 1.62151e-07 1.41264e-07 1.22498e-07 1.05753e-07 9.09161e-08 7.78651e-08 6.64746e-08 5.66189e-08 4.81753e-08 4.10272e-08 3.50667e-08 3.01966e-08 2.6332e-08 2.34017e-08 2.13496e-08 2.01347e-08 1.97325e-08 
4.758e-10 4.94318e-10 5.50964e-10 6.49052e-10 7.94238e-10 9.94722e-10 1.26153e-09 1.60886e-09 2.05457e-09 2.62064e-09 3.33382e-09 4.22629e-09 5.33638e-09 6.70938e-09 8.39838e-09 1.04651e-08 1.29806e-08 1.60265e-08 1.96949e-08 2.409e-08 2.93274e-08 3.55351e-08 4.2853e-08 5.14323e-08 6.14345e-08 7.30303e-08 8.63972e-08 1.01717e-07 1.19172e-07 1.38942e-07 1.61199e-07 1.86102e-07 2.13791e-07 2.44381e-07 2.77956e-07 3.14559e-07 3.54191e-07 3.96799e-07 4.42274e-07 4.90445e-07 5.41074e-07 5.93853e-07 6.48408e-07 7.04294e-07 7.61005e-07 8.17972e-07 8.74578e-07 9.30162e-07 9.84037e-07 1.0355e-06 1.08384e-06 1.12837e-06 1.16843e-06 1.20342e-06 1.23279e-06 1.25607e-06 1.27288e-06 1.28296e-06 1.28614e-06 1.28236e-06 1.27169e-06 1.2543e-06 1.23048e-06 1.20062e-06 1.16519e-06 1.12475e-06 1.0799e-06 1.0313e-06 9.79652e-07 9.25656e-07 8.70012e-07 8.13407e-07 7.56495e-07 6.99888e-07 6.44148e-07 5.89775e-07 5.37207e-07 4.86814e-07 4.38895e-07 3.93684e-07 3.51349e-07 3.11995e-07 2.75673e-07 2.42382e-07 2.12079e-07 1.84681e-07 1.60079e-07 1.38137e-07 1.18704e-07 1.01619e-07 8.67151e-08 7.38249e-08 6.27864e-08 5.34452e-08 4.5659e-08 3.92991e-08 3.42538e-08 3.04293e-08 2.77513e-08 2.61662e-08 2.56414e-08 
6.11225e-10 6.35065e-10 7.07996e-10 8.34297e-10 1.02128e-09 1.27954e-09 1.62333e-09 2.07102e-09 2.6457e-09 3.37583e-09 4.29607e-09 5.44809e-09 6.88162e-09 8.65542e-09 1.08384e-08 1.35108e-08 1.6765e-08 2.0707e-08 2.54572e-08 3.1151e-08 3.79394e-08 4.59895e-08 5.54842e-08 6.66212e-08 7.96122e-08 9.46812e-08 1.12061e-07 1.31991e-07 1.54711e-07 1.80459e-07 2.09462e-07 2.41931e-07 2.78053e-07 3.17981e-07 3.61828e-07 4.09658e-07 4.61474e-07 5.17211e-07 5.76731e-07 6.39811e-07 7.06142e-07 7.75326e-07 8.46871e-07 9.20196e-07 9.94634e-07 1.06944e-06 1.1438e-06 1.21685e-06 1.28767e-06 1.35534e-06 1.41892e-06 1.4775e-06 1.53022e-06 1.57627e-06 1.61492e-06 1.64556e-06 1.66769e-06 1.68094e-06 1.6851e-06 1.6801e-06 1.66603e-06 1.64311e-06 1.61173e-06 1.5724e-06 1.52575e-06 1.4725e-06 1.41348e-06 1.34955e-06 1.28163e-06 1.21065e-06 1.13753e-06 1.06318e-06 9.88452e-07 9.14164e-07 8.41047e-07 7.69759e-07 7.00872e-07 6.34868e-07 5.72138e-07 5.12984e-07 4.57623e-07 4.06188e-07 3.58741e-07 3.15278e-07 2.75737e-07 2.40007e-07 2.07939e-07 1.79355e-07 1.54053e-07 1.31819e-07 1.12432e-07 9.56734e-08 8.13285e-08 6.91946e-08 5.90844e-08 5.08292e-08 4.42824e-08 3.93209e-08 3.58474e-08 3.37917e-08 3.31112e-08 
7.8076e-10 8.1128e-10 9.04652e-10 1.06638e-09 1.30584e-09 1.63667e-09 2.07719e-09 2.65104e-09 3.38791e-09 4.32446e-09 5.50532e-09 6.98423e-09 8.8253e-09 1.11044e-08 1.39105e-08 1.73472e-08 2.15343e-08 2.66088e-08 3.27266e-08 4.00635e-08 4.88154e-08 5.91994e-08 7.14533e-08 8.58347e-08 1.0262e-07 1.221e-07 1.44581e-07 1.70375e-07 1.99797e-07 2.3316e-07 2.70762e-07 3.12883e-07 3.5977e-07 4.11629e-07 4.68612e-07 5.30806e-07 5.98222e-07 6.70781e-07 7.48308e-07 8.30518e-07 9.17012e-07 1.00727e-06 1.10066e-06 1.19642e-06 1.29368e-06 1.39146e-06 1.4887e-06 1.58426e-06 1.67694e-06 1.76552e-06 1.84877e-06 1.92551e-06 1.99457e-06 2.0549e-06 2.10554e-06 2.14568e-06 2.17467e-06 2.19202e-06 2.19745e-06 2.19086e-06 2.17238e-06 2.14231e-06 2.10114e-06 2.04956e-06 1.9884e-06 1.91862e-06 1.84129e-06 1.75757e-06 1.66864e-06 1.57575e-06 1.4801e-06 1.38288e-06 1.28523e-06 1.18819e-06 1.09272e-06 9.99696e-07 9.09849e-07 8.2381e-07 7.42085e-07 6.65062e-07 5.93018e-07 5.26123e-07 4.6445e-07 4.07988e-07 3.5665e-07 3.10287e-07 2.68701e-07 2.31652e-07 1.98875e-07 1.70089e-07 1.45003e-07 1.23327e-07 1.04783e-07 8.9104e-08 7.60451e-08 6.53864e-08 5.6936e-08 5.05336e-08 4.60523e-08 4.34005e-08 4.25228e-08 
9.92128e-10 1.031e-09 1.14992e-09 1.35594e-09 1.66105e-09 2.08267e-09 2.64424e-09 3.37602e-09 4.31604e-09 5.51125e-09 7.01885e-09 8.90777e-09 1.12603e-08 1.41738e-08 1.77628e-08 2.21604e-08 2.75209e-08 3.40207e-08 4.1861e-08 5.12684e-08 6.24964e-08 7.58255e-08 9.15636e-08 1.10045e-07 1.31627e-07 1.5669e-07 1.8563e-07 2.18855e-07 2.56778e-07 2.99805e-07 3.4833e-07 4.0272e-07 4.63302e-07 5.30349e-07 6.04067e-07 6.84576e-07 7.71898e-07 8.6594e-07 9.66479e-07 1.07315e-06 1.18545e-06 1.3027e-06 1.42409e-06 1.54861e-06 1.67515e-06 1.80243e-06 1.92906e-06 2.05355e-06 2.17434e-06 2.28983e-06 2.3984e-06 2.4985e-06 2.5886e-06 2.66733e-06 2.73342e-06 2.7858e-06 2.82362e-06 2.84625e-06 2.85329e-06 2.84465e-06 2.82047e-06 2.78115e-06 2.72737e-06 2.65999e-06 2.58013e-06 2.48904e-06 2.38813e-06 2.27892e-06 2.16298e-06 2.04191e-06 1.91731e-06 1.79073e-06 1.66363e-06 1.5374e-06 1.41329e-06 1.29242e-06 1.17574e-06 1.06408e-06 9.58069e-07 8.58223e-07 7.64887e-07 6.78275e-07 5.98473e-07 5.25458e-07 4.5911e-07 3.99229e-07 3.45548e-07 2.97753e-07 2.55495e-07 2.18402e-07 1.86094e-07 1.58194e-07 1.34336e-07 1.14174e-07 9.7388e-08 8.36927e-08 7.28386e-08 6.46172e-08 5.88641e-08 5.54601e-08 5.43335e-08 
1.25446e-09 1.30372e-09 1.45445e-09 1.7156e-09 2.10243e-09 2.63712e-09 3.34952e-09 4.27814e-09 5.47146e-09 6.98934e-09 8.90475e-09 1.13057e-08 1.42972e-08 1.8004e-08 2.25722e-08 2.81725e-08 3.50024e-08 4.32885e-08 5.32886e-08 6.52943e-08 7.96312e-08 9.66609e-08 1.1678e-07 1.4042e-07 1.68043e-07 2.00141e-07 2.37227e-07 2.79832e-07 3.2849e-07 3.83735e-07 4.46078e-07 5.16002e-07 5.93936e-07 6.80245e-07 7.75203e-07 8.78976e-07 9.91603e-07 1.11297e-06 1.24281e-06 1.38066e-06 1.52586e-06 1.67756e-06 1.83469e-06 1.99598e-06 2.15997e-06 2.32499e-06 2.48925e-06 2.6508e-06 2.80762e-06 2.9576e-06 3.09866e-06 3.22873e-06 3.34585e-06 3.44819e-06 3.53411e-06 3.60221e-06 3.65137e-06 3.68075e-06 3.68986e-06 3.67856e-06 3.64704e-06 3.59583e-06 3.5258e-06 3.43812e-06 3.33423e-06 3.21577e-06 3.0846e-06 2.94269e-06 2.79209e-06 2.63492e-06 2.47323e-06 2.30905e-06 2.14429e-06 1.98076e-06 1.82006e-06 1.66363e-06 1.51274e-06 1.36841e-06 1.23148e-06 1.10259e-06 9.82184e-07 8.70521e-07 7.67706e-07 6.73695e-07 5.88324e-07 5.11321e-07 4.42337e-07 3.80954e-07 3.26715e-07 2.79133e-07 2.37714e-07 2.01966e-07 1.71413e-07 1.45605e-07 1.24129e-07 1.06613e-07 9.27368e-08 8.22291e-08 7.48776e-08 7.05287e-08 6.90894e-08 
1.57849e-09 1.64062e-09 1.83075e-09 2.16019e-09 2.64829e-09 3.32314e-09 4.22255e-09 5.39536e-09 6.90304e-09 8.82157e-09 1.12436e-08 1.42809e-08 1.80672e-08 2.27609e-08 2.85484e-08 3.56471e-08 4.43089e-08 5.48231e-08 6.75194e-08 8.27705e-08 1.00994e-07 1.22652e-07 1.48256e-07 1.78358e-07 2.13555e-07 2.54479e-07 3.01795e-07 3.56186e-07 4.18347e-07 4.88969e-07 5.68721e-07 6.5823e-07 7.58063e-07 8.68699e-07 9.90505e-07 1.12371e-06 1.26838e-06 1.42439e-06 1.59139e-06 1.7688e-06 1.95581e-06 2.1513e-06 2.35391e-06 2.56201e-06 2.7737e-06 2.98685e-06 3.19912e-06 3.40799e-06 3.61082e-06 3.80489e-06 3.98746e-06 4.15587e-06 4.30755e-06 4.4401e-06 4.5514e-06 4.63962e-06 4.70328e-06 4.74129e-06 4.75303e-06 4.73829e-06 4.69734e-06 4.63087e-06 4.54003e-06 4.42633e-06 4.29165e-06 4.13816e-06 3.96826e-06 3.78453e-06 3.58965e-06 3.38635e-06 3.17733e-06 2.9652e-06 2.75245e-06 2.54139e-06 2.33411e-06 2.13249e-06 1.93811e-06 1.75231e-06 1.57616e-06 1.41045e-06 1.25576e-06 1.1124e-06 9.80487e-07 8.59953e-07 7.5057e-07 6.51976e-07 5.63706e-07 4.85215e-07 4.15903e-07 3.55136e-07 3.02272e-07 2.56671e-07 2.17718e-07 1.84832e-07 1.57479e-07 1.3518e-07 1.1752e-07 1.04151e-07 9.48003e-08 8.92695e-08 8.74392e-08 
1.97675e-09 2.05474e-09 2.29342e-09 2.70706e-09 3.32004e-09 4.16777e-09 5.29794e-09 6.77218e-09 8.6681e-09 1.10817e-08 1.413e-08 1.79545e-08 2.27244e-08 2.86404e-08 3.59386e-08 4.48952e-08 5.58299e-08 6.91104e-08 8.51564e-08 1.04443e-07 1.27501e-07 1.54923e-07 1.8736e-07 2.25522e-07 2.7017e-07 3.22119e-07 3.82221e-07 4.51359e-07 5.30428e-07 6.20323e-07 7.2191e-07 8.36009e-07 9.63358e-07 1.10459e-06 1.26019e-06 1.43048e-06 1.61556e-06 1.81528e-06 2.02923e-06 2.25668e-06 2.49658e-06 2.74754e-06 3.0078e-06 3.27528e-06 3.54754e-06 3.82183e-06 4.09512e-06 4.36418e-06 4.62557e-06 4.87578e-06 5.11125e-06 5.32853e-06 5.52425e-06 5.69534e-06 5.83901e-06 5.95287e-06 6.03501e-06 6.08403e-06 6.09909e-06 6.07993e-06 6.0269e-06 5.94092e-06 5.82347e-06 5.67653e-06 5.50256e-06 5.30437e-06 5.08509e-06 4.84807e-06 4.59679e-06 4.33479e-06 4.06556e-06 3.79248e-06 3.51878e-06 3.24742e-06 2.9811e-06 2.7222e-06 2.47278e-06 2.23454e-06 2.00882e-06 1.79664e-06 1.5987e-06 1.41539e-06 1.24685e-06 1.09295e-06 9.53385e-07 8.27678e-07 7.15212e-07 6.15274e-07 5.27081e-07 4.49812e-07 3.82634e-07 3.24721e-07 2.75279e-07 2.3356e-07 1.98877e-07 1.70615e-07 1.4824e-07 1.31308e-07 1.19467e-07 1.12465e-07 1.10148e-07 
2.46377e-09 2.56121e-09 2.85944e-09 3.37635e-09 4.14254e-09 5.20244e-09 6.61594e-09 8.46043e-09 1.08335e-08 1.38557e-08 1.76745e-08 2.24679e-08 2.84491e-08 3.58713e-08 4.50325e-08 5.62814e-08 7.00225e-08 8.6721e-08 1.06909e-07 1.31188e-07 1.60233e-07 1.94798e-07 2.3571e-07 2.83874e-07 3.40264e-07 4.0592e-07 4.81933e-07 5.69437e-07 6.69583e-07 7.83523e-07 9.1238e-07 1.05721e-06 1.21899e-06 1.39854e-06 1.59651e-06 1.81333e-06 2.04915e-06 2.30383e-06 2.57685e-06 2.86731e-06 3.17389e-06 3.49482e-06 3.82789e-06 4.17041e-06 4.51927e-06 4.87094e-06 5.22154e-06 5.56688e-06 5.90255e-06 6.22399e-06 6.52664e-06 6.80597e-06 7.05767e-06 7.27773e-06 7.46254e-06 7.609e-06 7.71462e-06 7.7776e-06 7.79683e-06 7.772e-06 7.70356e-06 7.59271e-06 7.44136e-06 7.25212e-06 7.02815e-06 6.77312e-06 6.49108e-06 6.18638e-06 5.86353e-06 5.52707e-06 5.18154e-06 4.83129e-06 4.48046e-06 4.13287e-06 3.79196e-06 3.4608e-06 3.14198e-06 2.83767e-06 2.54957e-06 2.27896e-06 2.0267e-06 1.79326e-06 1.57878e-06 1.38309e-06 1.20576e-06 1.04616e-06 9.03466e-07 7.76761e-07 6.65025e-07 5.67196e-07 4.82199e-07 4.0897e-07 3.4649e-07 2.93798e-07 2.50015e-07 2.14355e-07 1.86134e-07 1.64785e-07 1.49859e-07 1.41034e-07 1.38114e-07 