<?xml version="1.0"?>
<VTKFile type="StructuredGrid" version="0.1">
<StructuredGrid WholeExtent="0 100 0 100 0 0">
<Piece Extent="0 100 0 100 0 0">
<Points>
<DataArray type="Float64" NumberOfComponents="3" format="ascii">
-15 -15 0
-15 -14.7 0
-15 -14.4 0
-15 -14.1 0
-15 -13.8 0
-15 -13.5 0
-15 -13.2 0
-15 -12.9 0
-15 -12.6 0
-15 -12.3 0
-15 -12 0
-15 -11.7 0
-15 -11.4 0
-15 -11.1 0
-15 -10.8 0
-15 -10.5 0
-15 -10.2 0
-15 -9.9 0
-15 -9.6 0
-15 -9.3 0
-15 -9 0
-15 -8.7 0
-15 -8.4 0
-15 -8.1 0
-15 -7.8 0
-15 -7.5 0
-15 -7.2 0
-15 -6.9 0
-15 -6.6 0
-15 -6.3 0
-15 -6 0
-15 -5.7 0
-15 -5.4 0
-15 -5.1 0
-15 -4.8 0
-15 -4.5 0
-15 -4.2 0
-15 -3.9 0
-15 -3.6 0
-15 -3.3 0
-15 -3 0
-15 -2.7 0
-15 -2.4 0
-15 -2.1 0
-15 -1.8 0
-15 -1.5 0
-15 -1.2 0
-15 -0.9 0
-15 -0.6 0
-15 -0.3 0
-15 0 0
-15 0.3 0
-15 0.6 0
-15 0.9 0
-15 1.2 0
-15 1.5 0
-15 1.8 0
-15 2.1 0
-15 2.4 0
-15 2.7 0
-15 3 0
-15 3.3 0
-15 3.6 0
-15 3.9 0
-15 4.2 0
-15 4.5 0
-15 4.8 0
-15 5.1 0
-15 5.4 0
-15 5.7 0
-15 6 0
-15 6.3 0
-15 6.6 0
-15 6.9 0
-15 7.2 0
-15 7.5 0
-15 7.8 0
-15 8.1 0
-15 8.4 0
-15 8.7 0
-15 9 0
-15 9.3 0
-15 9.6 0
-15 9.9 0
-15 10.2 0
-15 10.5 0
-15 10.8 0
-15 11.1 0
-15 11.4 0
-15 11.7 0
-15 12 0
-15 12.3 0
-15 12.6 0
-15 12.9 0
-15 13.2 0
-15 13.5 0
-15 13.8 0
-15 14.1 0
-15 14.4 0
-15 14.7 0
-15 15 0
-14.7 -15 0
-14.7 -14.7 0
-14.7 -14.4 0
-14.7 -14.1 0
-14.7 -13.8 0
-14.7 -13.5 0
-14.7 -13.2 0
-14.7 -12.9 0
-14.7 -12.6 0
-14.7 -12.3 0
-14.7 -12 0
-14.7 -11.7 0
-14.7 -11.4 0
-14.7 -11.1 0
-14.7 -10.8 0
-14.7 -10.5 0
-14.7 -10.2 0
-14.7 -9.9 0
-14.7 -9.6 0
-14.7 -9.3 0
-14.7 -9 0
-14.7 -8.7 0
-14.7 -8.4 0
-14.7 -8.1 0
-14.7 -7.8 0
-14.7 -7.5 0
-14.7 -7.2 0
-14.7 -6.9 0
-14.7 -6.6 0
-14.7 -6.3 0
-14.7 -6 0
-14.7 -5.7 0
-14.7 -5.4 0
-14.7 -5.1 0
-14.7 -4.8 0
-14.7 -4.5 0
-14.7 -4.2 0
-14.7 -3.9 0
-14.7 -3.6 0
-14.7 -3.3 0
-14.7 -3 0
-14.7 -2.7 0
-14.7 -2.4 0
-14.7 -2.1 0
-14.7 -1.8 0
-14.7 -1.5 0
-14.7 -1.2 0
-14.7 -0.9 0
-14.7 -0.6 0
-14.7 -0.3 0
-14.7 0 0
-14.7 0.3 0
-14.7 0.6 0
-14.7 0.9 0
-14.7 1.2 0
-14.7 1.5 0
-14.7 1.8 0
-14.7 2.1 0
-14.7 2.4 0
-14.7 2.7 0
-14.7 3 0
-14.7 3.3 0
-14.7 3.6 0
-14.7 3.9 0
-14.7 4.2 0
-14.7 4.5 0
-14.7 4.8 0
-14.7 5.1 0
-14.7 5.4 0
-14.7 5.7 0
-14.7 6 0
-14.7 6.3 0
-14.7 6.6 0
-14.7 6.9 0
-14.7 7.2 0
-14.7 7.5 0
-14.7 7.8 0
-14.7 8.1 0
-14.7 8.4 0
-14.7 8.7 0
-14.7 9 0
-14.7 9.3 0
-14.7 9.6 0
-14.7 9.9 0
-14.7 10.2 0
-14.7 10.5 0
-14.7 10.8 0
-14.7 11.1 0
-14.7 11.4 0
-14.7 11.7 0
-14.7 12 0
-14.7 12.3 0
-14.7 12.6 0
-14.7 12.9 0
-14.7 13.2 0
-14.7 13.5 0
-14.7 13.8 0
-14.7 14.1 0
-14.7 14.4 0
-14.7 14.7 0
-14.7 15 0
-14.4 -15 0
-14.4 -14.7 0
-14.4 -14.4 0
-14.4 -14.1 0
-14.4 -13.8 0
-14.4 -13.5 0
-14.4 -13.2 0
-14.4 -12.9 0
-14.4 -12.6 0
-14.4 -12.3 0
-14.4 -12 0
-14.4 -11.7 0
-14.4 -11.4 0
-14.4 -11.1 0
-14.4 -10.8 0
-14.4 -10.5 0
-14.4 -10.2 0
-14.4 -9.9 0
-14.4 -9.6 0
-14.4 -9.3 0
-14.4 -9 0
-14.4 -8.7 0
-14.4 -8.4 0
-14.4 -8.1 0
-14.4 -7.8 0
-14.4 -7.5 0
-14.4 -7.2 0
-14.4 -6.9 0
-14.4 -6.6 0
-14.4 -6.3 0
-14.4 -6 0
-14.4 -5.7 0
-14.4 -5.4 0
-14.4 -5.1 0
-14.4 -4.8 0
-14.4 -4.5 0
-14.4 -4.2 0
-14.4 -3.9 0
-14.4 -3.6 0
-14.4 -3.3 0
-14.4 -3 0
-14.4 -2.7 0
-14.4 -2.4 0
-14.4 -2.1 0
-14.4 -1.8 0
-14.4 -1.5 0
-14.4 -1.2 0
-14.4 -0.9 0
-14.4 -0.6 0
-14.4 -0.3 0
-14.4 0 0
-14.4 0.3 0
-14.4 0.6 0
-14.4 0.9 0
-14.4 1.2 0
-14.4 1.5 0
-14.4 1.8 0
-14.4 2.1 0
-14.4 2.4 0
-14.4 2.7 0
-14.4 3 0
-14.4 3.3 0
-14.4 3.6 0
-14.4 3.9 0
-14.4 4.2 0
-14.4 4.5 0
-14.4 4.8 0
-14.4 5.1 0
-14.4 5.4 0
-14.4 5.7 0
-14.4 6 0
-14.4 6.3 0
-14.4 6.6 0
-14.4 6.9 0
-14.4 7.2 0
-14.4 7.5 0
-14.4 7.8 0
-14.4 8.1 0
-14.4 8.4 0
-14.4 8.7 0
-14.4 9 0
-14.4 9.3 0
-14.4 9.6 0
-14.4 9.9 0
-14.4 10.2 0
-14.4 10.5 0
-14.4 10.8 0
-14.4 11.1 0
-14.4 11.4 0
-14.4 11.7 0
-14.4 12 0
-14.4 12.3 0
-14.4 12.6 0
-14.4 12.9 0
-14.4 13.2 0
-14.4 13.5 0
-14.4 13.8 0
-14.4 14.1 0
-14.4 14.4 0
-14.4 14.7 0
-14.4 15 0
-14.1 -15 0
-14.1 -14.7 0
-14.1 -14.4 0
-14.1 -14.1 0
-14.1 -13.8 0
-14.1 -13.5 0
-14.1 -13.2 0
-14.1 -12.9 0
-14.1 -12.6 0
-14.1 -12.3 0
-14.1 -12 0
-14.1 -11.7 0
-14.1 -11.4 0
-14.1 -11.1 0
-14.1 -10.8 0
-14.1 -10.5 0
-14.1 -10.2 0
-14.1 -9.9 0
-14.1 -9.6 0
-14.1 -9.3 0
-14.1 -9 0
-14.1 -8.7 0
-14.1 -8.4 0
-14.1 -8.1 0
-14.1 -7.8 0
-14.1 -7.5 0
-14.1 -7.2 0
-14.1 -6.9 0
-14.1 -6.6 0
-14.1 -6.3 0
-14.1 -6 0
-14.1 -5.7 0
-14.1 -5.4 0
-14.1 -5.1 0
-14.1 -4.8 0
-14.1 -4.5 0
-14.1 -4.2 0
-14.1 -3.9 0
-14.1 -3.6 0
-14.1 -3.3 0
-14.1 -3 0
-14.1 -2.7 0
-14.1 -2.4 0
-14.1 -2.1 0
-14.1 -1.8 0
-14.1 -1.5 0
-14.1 -1.2 0
-14.1 -0.9 0
-14.1 -0.6 0
-14.1 -0.3 0
-14.1 0 0
-14.1 0.3 0
-14.1 0.6 0
-14.1 0.9 0
-14.1 1.2 0
-14.1 1.5 0
-14.1 1.8 0
-14.1 2.1 0
-14.1 2.4 0
-14.1 2.7 0
-14.1 3 0
-14.1 3.3 0
-14.1 3.6 0
-14.1 3.9 0
-14.1 4.2 0
-14.1 4.5 0
-14.1 4.8 0
-14.1 5.1 0
-14.1 5.4 0
-14.1 5.7 0
-14.1 6 0
-14.1 6.3 0
-14.1 6.6 0
-14.1 6.9 0
-14.1 7.2 0
-14.1 7.5 0
-14.1 7.8 0
-14.1 8.1 0
-14.1 8.4 0
-14.1 8.7 0
-14.1 9 0
-14.1 9.3 0
-14.1 9.6 0
-14.1 9.9 0
-14.1 10.2 0
-14.1 10.5 0
-14.1 10.8 0
-14.1 11.1 0
-14.1 11.4 0
-14.1 11.7 0
-14.1 12 0
-14.1 12.3 0
-14.1 12.6 0
-14.1 12.9 0
-14.1 13.2 0
-14.1 13.5 0
-14.1 13.8 0
-14.1 14.1 0
-14.1 14.4 0
-14.1 14.7 0
-14.1 15 0
-13.8 -15 0
-13.8 -14.7 0
-13.8 -14.4 0
-13.8 -14.1 0
-13.8 -13.8 0
-13.8 -13.5 0
-13.8 -13.2 0
-13.8 -12.9 0
-13.8 -12.6 0
-13.8 -12.3 0
-13.8 -12 0
-13.8 -11.7 0
-13.8 -11.4 0
-13.8 -11.1 0
-13.8 -10.8 0
-13.8 -10.5 0
-13.8 -10.2 0
-13.8 -9.9 0
-13.8 -9.6 0
-13.8 -9.3 0
-13.8 -9 0
-13.8 -8.7 0
-13.8 -8.4 0
-13.8 -8.1 0
-13.8 -7.8 0
-13.8 -7.5 0
-13.8 -7.2 0
-13.8 -6.9 0
-13.8 -6.6 0
-13.8 -6.3 0
-13.8 -6 0
-13.8 -5.7 0
-13.8 -5.4 0
-13.8 -5.1 0
-13.8 -4.8 0
-13.8 -4.5 0
-13.8 -4.2 0
-13.8 -3.9 0
-13.8 -3.6 0
-13.8 -3.3 0
-13.8 -3 0
-13.8 -2.7 0
-13.8 -2.4 0
-13.8 -2.1 0
-13.8 -1.8 0
-13.8 -1.5 0
-13.8 -1.2 0
-13.8 -0.9 0
-13.8 -0.6 0
-13.8 -0.3 0
-13.8 0 0
-13.8 0.3 0
-13.8 0.6 0
-13.8 0.9 0
-13.8 1.2 0
-13.8 1.5 0
-13.8 1.8 0
-13.8 2.1 0
-13.8 2.4 0
-13.8 2.7 0
-13.8 3 0
-13.8 3.3 0
-13.8 3.6 0
-13.8 3.9 0
-13.8 4.2 0
-13.8 4.5 0
-13.8 4.8 0
-13.8 5.1 0
-13.8 5.4 0
-13.8 5.7 0
-13.8 6 0
-13.8 6.3 0
-13.8 6.6 0
-13.8 6.9 0
-13.8 7.2 0
-13.8 7.5 0
-13.8 7.8 0
-13.8 8.1 0
-13.8 8.4 0
-13.8 8.7 0
-13.8 9 0
-13.8 9.3 0
-13.8 9.6 0
-13.8 9.9 0
-13.8 10.2 0
-13.8 10.5 0
-13.8 10.8 0
-13.8 11.1 0
-13.8 11.4 0
-13.8 11.7 0
-13.8 12 0
-13.8 12.3 0
-13.8 12.6 0
-13.8 12.9 0
-13.8 13.2 0
-13.8 13.5 0
-13.8 13.8 0
-13.8 14.1 0
-13.8 14.4 0
-13.8 14.7 0
-13.8 15 0
-13.5 -15 0
-13.5 -14.7 0
-13.5 -14.4 0
-13.5 -14.1 0
-13.5 -13.8 0
-13.5 -13.5 0
-13.5 -13.2 0
-13.5 -12.9 0
-13.5 -12.6 0
-13.5 -12.3 0
-13.5 -12 0
-13.5 -11.7 0
-13.5 -11.4 0
-13.5 -11.1 0
-13.5 -10.8 0
-13.5 -10.5 0
-13.5 -10.2 0
-13.5 -9.9 0
-13.5 -9.6 0
-13.5 -9.3 0
-13.5 -9 0
-13.5 -8.7 0
-13.5 -8.4 0
-13.5 -8.1 0
-13.5 -7.8 0
-13.5 -7.5 0
-13.5 -7.2 0
-13.5 -6.9 0
-13.5 -6.6 0
-13.5 -6.3 0
-13.5 -6 0
-13.5 -5.7 0
-13.5 -5.4 0
-13.5 -5.1 0
-13.5 -4.8 0
-13.5 -4.5 0
-13.5 -4.2 0
-13.5 -3.9 0
-13.5 -3.6 0
-13.5 -3.3 0
-13.5 -3 0
-13.5 -2.7 0
-13.5 -2.4 0
-13.5 -2.1 0
-13.5 -1.8 0
-13.5 -1.5 0
-13.5 -1.2 0
-13.5 -0.9 0
-13.5 -0.6 0
-13.5 -0.3 0
-13.5 0 0
-13.5 0.3 0
-13.5 0.6 0
-13.5 0.9 0
-13.5 1.2 0
-13.5 1.5 0
-13.5 1.8 0
-13.5 2.1 0
-13.5 2.4 0
-13.5 2.7 0
-13.5 3 0
-13.5 3.3 0
-13.5 3.6 0
-13.5 3.9 0
-13.5 4.2 0
-13.5 4.5 0
-13.5 4.8 0
-13.5 5.1 0
-13.5 5.4 0
-13.5 5.7 0
-13.5 6 0
-13.5 6.3 0
-13.5 6.6 0
-13.5 6.9 0
-13.5 7.2 0
-13.5 7.5 0
-13.5 7.8 0
-13.5 8.1 0
-13.5 8.4 0
-13.5 8.7 0
-13.5 9 0
-13.5 9.3 0
-13.5 9.6 0
-13.5 9.9 0
-13.5 10.2 0
-13.5 10.5 0
-13.5 10.8 0
-13.5 11.1 0
-13.5 11.4 0
-13.5 11.7 0
-13.5 12 0
-13.5 12.3 0
-13.5 12.6 0
-13.5 12.9 0
-13.5 13.2 0
-13.5 13.5 0
-13.5 13.8 0
-13.5 14.1 0
-13.5 14.4 0
-13.5 14.7 0
-13.5 15 0
-13.2 -15 0
-13.2 -14.7 0
-13.2 -14.4 0
-13.2 -14.1 0
-13.2 -13.8 0
-13.2 -13.5 0
-13.2 -13.2 0
-13.2 -12.9 0
-13.2 -12.6 0
-13.2 -12.3 0
-13.2 -12 0
-13.2 -11.7 0
-13.2 -11.4 0
-13.2 -11.1 0
-13.2 -10.8 0
-13.2 -10.5 0
-13.2 -10.2 0
-13.2 -9.9 0
-13.2 -9.6 0
-13.2 -9.3 0
-13.2 -9 0
-13.2 -8.7 0
-13.2 -8.4 0
-13.2 -8.1 0
-13.2 -7.8 0
-13.2 -7.5 0
-13.2 -7.2 0
-13.2 -6.9 0
-13.2 -6.6 0
-13.2 -6.3 0
-13.2 -6 0
-13.2 -5.7 0
-13.2 -5.4 0
-13.2 -5.1 0
-13.2 -4.8 0
-13.2 -4.5 0
-13.2 -4.2 0
-13.2 -3.9 0
-13.2 -3.6 0
-13.2 -3.3 0
-13.2 -3 0
-13.2 -2.7 0
-13.2 -2.4 0
-13.2 -2.1 0
-13.2 -1.8 0
-13.2 -1.5 0
-13.2 -1.2 0
-13.2 -0.9 0
-13.2 -0.6 0
-13.2 -0.3 0
-13.2 0 0
-13.2 0.3 0
-13.2 0.6 0
-13.2 0.9 0
-13.2 1.2 0
-13.2 1.5 0
-13.2 1.8 0
-13.2 2.1 0
-13.2 2.4 0
-13.2 2.7 0
-13.2 3 0
-13.2 3.3 0
-13.2 3.6 0
-13.2 3.9 0
-13.2 4.2 0
-13.2 4.5 0
-13.2 4.8 0
-13.2 5.1 0
-13.2 5.4 0
-13.2 5.7 0
-13.2 6 0
-13.2 6.3 0
-13.2 6.6 0
-13.2 6.9 0
-13.2 7.2 0
-13.2 7.5 0
-13.2 7.8 0
-13.2 8.1 0
-13.2 8.4 0
-13.2 8.7 0
-13.2 9 0
-13.2 9.3 0
-13.2 9.6 0
-13.2 9.9 0
-13.2 10.2 0
-13.2 10.5 0
-13.2 10.8 0
-13.2 11.1 0
-13.2 11.4 0
-13.2 11.7 0
-13.2 12 0
-13.2 12.3 0
-13.2 12.6 0
-13.2 12.9 0
-13.2 13.2 0
-13.2 13.5 0
-13.2 13.8 0
-13.2 14.1 0
-13.2 14.4 0
-13.2 14.7 0
-13.2 15 0
-12.9 -15 0
-12.9 -14.7 0
-12.9 -14.4 0
-12.9 -14.1 0
-12.9 -13.8 0
-12.9 -13.5 0
-12.9 -13.2 0
-12.9 -12.9 0
-12.9 -12.6 0
-12.9 -12.3 0
-12.9 -12 0
-12.9 -11.7 0
-12.9 -11.4 0
-12.9 -11.1 0
-12.9 -10.8 0
-12.9 -10.5 0
-12.9 -10.2 0
-12.9 -9.9 0
-12.9 -9.6 0
-12.9 -9.3 0
-12.9 -9 0
-12.9 -8.7 0
-12.9 -8.4 0
-12.9 -8.1 0
-12.9 -7.8 0
-12.9 -7.5 0
-12.9 -7.2 0
-12.9 -6.9 0
-12.9 -6.6 0
-12.9 -6.3 0
-12.9 -6 0
-12.9 -5.7 0
-12.9 -5.4 0
-12.9 -5.1 0
-12.9 -4.8 0
-12.9 -4.5 0
-12.9 -4.2 0
-12.9 -3.9 0
-12.9 -3.6 0
-12.9 -3.3 0
-12.9 -3 0
-12.9 -2.7 0
-12.9 -2.4 0
-12.9 -2.1 0
-12.9 -1.8 0
-12.9 -1.5 0
-12.9 -1.2 0
-12.9 -0.9 0
-12.9 -0.6 0
-12.9 -0.3 0
-12.9 0 0
-12.9 0.3 0
-12.9 0.6 0
-12.9 0.9 0
-12.9 1.2 0
-12.9 1.5 0
-12.9 1.8 0
-12.9 2.1 0
-12.9 2.4 0
-12.9 2.7 0
-12.9 3 0
-12.9 3.3 0
-12.9 3.6 0
-12.9 3.9 0
-12.9 4.2 0
-12.9 4.5 0
-12.9 4.8 0
-12.9 5.1 0
-12.9 5.4 0
-12.9 5.7 0
-12.9 6 0
-12.9 6.3 0
-12.9 6.6 0
-12.9 6.9 0
-12.9 7.2 0
-12.9 7.5 0
-12.9 7.8 0
-12.9 8.1 0
-12.9 8.4 0
-12.9 8.7 0
-12.9 9 0
-12.9 9.3 0
-12.9 9.6 0
-12.9 9.9 0
[...]
<PointData Scalars="scalars">
<DataArray type="Float64" Name="u" NumberOfComponents="1" format="ascii">
0 0 0 0 0 0 0 0 0 0 0 0 0 0 0 0 0 0 0 0 0 0 0 0 0 0 0 0 0 0 0 0 0 0 0 0 0 0 0 0 0 0 0 0 0 0 0 0 0 0 0 0 0 0 0 0 0 0 0 0 0 0 0 0 0 0 0 0 0 0 0 0 0 0 0 0 0 0 0 0 0 0 0 0 0 0 0 0 0 0 0 0 0 0 0 0 0 0 0 0 0 
2.06819e-24 2.70799e-24 4.9888e-24 1.01786e-23 2.10858e-23 4.34221e-23 8.8475e-23 1.78182e-22 3.54583e-22 6.97167e-22 1.35421e-21 2.59856e-21 4.92547e-21 9.22151e-21 1.70516e-20 3.1139e-20 5.61555e-20 9.99995e-20 1.75829e-19 3.05239e-19 5.23137e-19 8.85093e-19 1.47818e-18 2.43671e-18 3.96449e-18 6.36571e-18 1.00868e-17 1.57717e-17 2.43329e-17 3.70397e-17 5.56254e-17 8.24102e-17 1.20438e-16 1.73618e-16 2.46856e-16 3.46167e-16 4.78735e-16 6.52898e-16 8.78033e-16 1.16431e-15 1.52227e-15 1.96227e-15 2.49372e-15 3.12419e-15 3.85839e-15 4.69715e-15 5.63644e-15 6.66651e-15 7.77142e-15 8.92882e-15 1.01104e-14 1.12825e-14 1.24079e-14 1.34473e-14 1.43619e-14 1.51153e-14 1.56763e-14 1.60212e-14 1.61347e-14 1.6012e-14 1.56585e-14 1.50894e-14 1.43291e-14 1.3409e-14 1.23655e-14 1.12375e-14 1.00644e-14 8.88314e-15 7.72727e-15 6.62488e-15 5.59807e-15 4.66254e-15 3.8278e-15 3.09768e-15 2.47117e-15 1.94344e-15 1.50682e-15 1.15185e-15 8.68163e-16 6.45204e-16 4.72835e-16 3.41716e-16 2.4355e-16 1.71201e-16 1.18699e-16 8.11773e-17 5.47646e-17 3.64477e-17 2.39317e-17 1.55039e-17 9.91063e-18 6.25155e-18 3.89172e-18 2.3913e-18 1.45086e-18 8.70069e-19 5.17331e-19 3.07916e-19 1.88768e-19 1.28279e-19 1.09837e-19 
5.4323e-24 7.11217e-24 1.31004e-23 2.67249e-23 5.53562e-23 1.13983e-22 2.32222e-22 4.67632e-22 9.30511e-22 1.82938e-21 3.55321e-21 6.81772e-21 1.2922e-20 2.41914e-20 4.47304e-20 8.16819e-20 1.47299e-19 2.62298e-19 4.61189e-19 8.00616e-19 1.37214e-18 2.32152e-18 3.87718e-18 6.39144e-18 1.0399e-17 1.66979e-17 2.64597e-17 4.13739e-17 6.38352e-17 9.71753e-17 1.45944e-16 2.16231e-16 3.1603e-16 4.55604e-16 6.4784e-16 9.08536e-16 1.25656e-15 1.71383e-15 2.30498e-15 3.05674e-15 3.99684e-15 5.15251e-15 6.54851e-15 8.20475e-15 1.01337e-14 1.23375e-14 1.48057e-14 1.75126e-14 2.04164e-14 2.34584e-14 2.65641e-14 2.96451e-14 3.26035e-14 3.53361e-14 3.77403e-14 3.97209e-14 4.1196e-14 4.21024e-14 4.24009e-14 4.20781e-14 4.11484e-14 3.96522e-14 3.76532e-14 3.52342e-14 3.24908e-14 2.95256e-14 2.64417e-14 2.33369e-14 2.0299e-14 1.74019e-14 1.47036e-14 1.22454e-14 1.00523e-14 8.13421e-15 6.48851e-15 5.10241e-15 3.95574e-15 3.0236e-15 2.27871e-15 1.69335e-15 1.24086e-15 8.96688e-16 6.39041e-16 4.49171e-16 3.114e-16 2.12949e-16 1.43652e-16 9.5599e-17 6.2767e-17 4.06607e-17 2.59904e-17 1.63938e-17 1.02051e-17 6.27044e-18 3.80432e-18 2.28138e-18 1.35646e-18 8.07364e-19 4.94956e-19 3.36356e-19 2.88002e-19 
1.21293e-23 1.58783e-23 2.92416e-23 5.96426e-23 1.2352e-22 2.54302e-22 5.18034e-22 1.04305e-21 2.07527e-21 4.07957e-21 7.92302e-21 1.5201e-20 2.88092e-20 5.39304e-20 9.97132e-20 1.82077e-19 3.28333e-19 5.84653e-19 1.02796e-18 1.7845e-18 3.05838e-18 5.17452e-18 8.64214e-18 1.42468e-17 2.31806e-17 3.72233e-17 5.89875e-17 9.22419e-17 1.42328e-16 2.1668e-16 3.25448e-16 4.82229e-16 7.0486e-16 1.01626e-15 1.4452e-15 2.02697e-15 2.80373e-15 3.82444e-15 5.14418e-15 6.8227e-15 8.92203e-15 1.15031e-14 1.46213e-14 1.83214e-14 2.26311e-14 2.75557e-14 3.30716e-14 3.91218e-14 4.56128e-14 5.24132e-14 5.93566e-14 6.62456e-14 7.28608e-14 7.89713e-14 8.43478e-14 8.87772e-14 9.20758e-14 9.41029e-14 9.477e-14 9.40477e-14 9.19678e-14 8.8621e-14 8.41501e-14 7.87399e-14 7.26047e-14 6.59741e-14 5.90787e-14 5.21373e-14 4.5346e-14 3.88703e-14 3.28398e-14 2.73466e-14 2.24463e-14 1.81611e-14 1.44851e-14 1.13893e-14 8.82866e-15 6.74741e-15 5.0845e-15 3.77791e-15 2.76805e-15 2.00005e-15 1.4252e-15 1.00164e-15 6.94335e-16 4.74767e-16 3.20238e-16 2.13095e-16 1.39899e-16 9.06197e-17 5.79201e-17 3.65316e-17 2.27395e-17 1.39714e-17 8.47618e-18 5.08285e-18 3.02209e-18 1.79872e-18 1.10271e-18 7.49368e-19 6.41642e-19 
2.60593e-23 3.411e-23 6.28041e-23 1.28075e-22 2.65201e-22 5.45912e-22 1.11192e-21 2.23855e-21 4.45334e-21 8.75348e-21 1.69987e-20 3.26109e-20 6.18001e-20 1.15682e-19 2.13876e-19 3.90525e-19 7.04198e-19 1.25392e-18 2.20467e-18 3.82723e-18 6.55942e-18 1.10982e-17 1.85361e-17 3.05584e-17 4.97234e-17 7.98505e-17 1.26547e-16 1.97904e-16 3.05389e-16 4.64966e-16 6.98439e-16 1.03501e-15 1.51302e-15 2.18171e-15 3.10294e-15 4.3526e-15 6.02135e-15 8.21453e-15 1.10507e-14 1.46585e-14 1.91715e-14 2.4721e-14 3.14265e-14 3.93843e-14 4.8655e-14 5.92497e-14 7.11183e-14 8.41383e-14 9.81085e-14 1.12747e-13 1.27694e-13 1.42526e-13 1.56769e-13 1.69927e-13 1.81504e-13 1.91043e-13 1.98146e-13 2.02511e-13 2.03947e-13 2.0239e-13 1.9791e-13 1.90701e-13 1.81072e-13 1.6942e-13 1.56209e-13 1.41931e-13 1.27086e-13 1.12143e-13 9.75247e-14 8.35877e-14 7.06108e-14 5.87919e-14 4.82503e-14 3.90335e-14 3.11281e-14 2.44718e-14 1.8967e-14 1.44936e-14 1.092e-14 8.11263e-15 5.94319e-15 4.29362e-15 3.05913e-15 2.14967e-15 1.48996e-15 1.01866e-15 6.87019e-16 4.5711e-16 3.00064e-16 1.94347e-16 1.24207e-16 7.83336e-17 4.87561e-17 2.99542e-17 1.81716e-17 1.08963e-17 6.47836e-18 3.85576e-18 2.36374e-18 1.60632e-18 1.37541e-18 
5.50432e-23 7.20398e-23 1.32614e-22 2.70388e-22 5.59797e-22 1.15217e-21 2.34645e-21 4.7234e-21 9.39566e-21 1.84663e-20 3.58574e-20 6.87849e-20 1.30344e-19 2.43976e-19 4.51051e-19 8.23567e-19 1.48503e-18 2.64428e-18 4.64925e-18 8.07106e-18 1.38332e-17 2.34058e-17 3.90939e-17 6.44535e-17 1.04883e-16 1.68443e-16 2.66972e-16 4.17549e-16 6.44393e-16 9.81219e-16 1.47409e-15 2.18472e-15 3.19412e-15 4.6064e-15 6.5524e-15 9.19259e-15 1.27189e-14 1.73541e-14 2.33494e-14 3.09772e-14 4.05206e-14 5.2258e-14 6.64428e-14 8.32799e-14 1.02898e-13 1.25322e-13 1.50445e-13 1.78011e-13 2.07592e-13 2.38592e-13 2.7025e-13 3.01667e-13 3.3184e-13 3.59716e-13 3.84246e-13 4.04456e-13 4.19507e-13 4.28754e-13 4.31795e-13 4.28494e-13 4.18998e-13 4.0372e-13 3.83314e-13 3.58625e-13 3.30634e-13 3.00387e-13 2.6894e-13 2.37291e-13 2.06335e-13 1.76825e-13 1.49353e-13 1.24336e-13 1.02026e-13 8.25243e-14 6.58001e-14 5.17211e-14 4.00801e-14 3.0622e-14 2.30678e-14 1.71346e-14 1.25504e-14 9.06548e-15 6.45798e-15 4.53735e-15 3.1444e-15 2.14946e-15 1.44947e-15 9.6428e-16 6.3291e-16 4.09879e-16 2.61924e-16 1.65171e-16 1.02796e-16 6.31492e-17 3.83065e-17 2.29685e-17 1.36551e-17 8.12686e-18 4.98195e-18 3.38551e-18 2.89881e-18 
1.14781e-22 1.50207e-22 2.76455e-22 5.63567e-22 1.16661e-21 2.4008e-21 4.88874e-21 9.83998e-21 1.95715e-20 3.84628e-20 7.46805e-20 1.4325e-19 2.71438e-19 5.08051e-19 9.39233e-19 1.7149e-18 3.09224e-18 5.50614e-18 9.6812e-18 1.68069e-17 2.88069e-17 4.87439e-17 8.14201e-17 1.34245e-16 2.1847e-16 3.50898e-16 5.56206e-16 8.70012e-16 1.34283e-15 2.04499e-15 3.0726e-15 4.55448e-15 6.65976e-15 9.60586e-15 1.36661e-14 1.91757e-14 2.65359e-14 3.62128e-14 4.87316e-14 6.46623e-14 8.45977e-14 1.09121e-13 1.38764e-13 1.73957e-13 2.14969e-13 2.61856e-13 3.14398e-13 3.72056e-13 4.3394e-13 4.98801e-13 5.65049e-13 6.30799e-13 6.93954e-13 7.52304e-13 8.03654e-13 8.45963e-13 8.77472e-13 8.96831e-13 9.03193e-13 8.96278e-13 8.7639e-13 8.44398e-13 8.01673e-13 7.49985e-13 6.91388e-13 6.28078e-13 5.62263e-13 4.96035e-13 4.31266e-13 3.69535e-13 3.12074e-13 2.59759e-13 2.13115e-13 1.72349e-13 1.37397e-13 1.07979e-13 8.36606e-14 6.39065e-14 4.81324e-14 3.57456e-14 2.61775e-14 1.89052e-14 1.34651e-14 9.45889e-15 6.55392e-15 4.47943e-15 3.02018e-15 2.00891e-15 1.31837e-15 8.53676e-16 5.45453e-16 3.43926e-16 2.14023e-16 1.31465e-16 7.97403e-17 4.78084e-17 2.84209e-17 1.69138e-17 1.0368e-17 7.04542e-18 6.03247e-18 
2.36482e-22 3.09439e-22 5.69417e-22 1.1606e-21 2.40217e-21 4.94288e-21 1.00641e-20 2.02549e-20 4.02831e-20 7.91602e-20 1.5369e-19 2.94788e-19 5.5856e-19 1.04543e-18 1.93265e-18 3.52872e-18 6.36289e-18 1.13302e-17 1.99219e-17 3.45866e-17 5.92841e-17 1.00321e-16 1.67585e-16 2.76337e-16 4.49753e-16 7.22452e-16 1.14529e-15 1.79167e-15 2.76574e-15 4.21254e-15 6.33032e-15 9.38485e-15 1.37252e-14 1.98003e-14 2.81744e-14 3.95405e-14 5.47274e-14 7.46989e-14 1.00541e-13 1.33434e-13 1.74605e-13 2.25262e-13 2.86508e-13 3.59235e-13 4.44008e-13 5.40942e-13 6.49588e-13 7.68835e-13 8.96845e-13 1.03103e-12 1.16811e-12 1.30418e-12 1.43489e-12 1.55567e-12 1.66196e-12 1.74955e-12 1.81478e-12 1.85485e-12 1.86802e-12 1.85369e-12 1.81251e-12 1.74626e-12 1.6578e-12 1.55079e-12 1.4295e-12 1.29846e-12 1.16226e-12 1.02522e-12 8.91225e-13 7.63535e-13 6.44703e-13 5.36534e-13 4.40111e-13 3.55856e-13 2.83634e-13 2.22861e-13 1.72635e-13 1.31845e-13 9.92812e-14 7.37164e-14 5.39737e-14 3.89716e-14 2.77517e-14 1.94911e-14 1.35026e-14 9.22695e-15 6.22003e-15 4.13664e-15 2.71428e-15 1.75729e-15 1.12265e-15 7.07774e-16 4.40388e-16 2.70481e-16 1.64043e-16 9.83433e-17 5.84577e-17 3.47867e-17 2.13227e-17 1.44887e-17 1.24054e-17 
4.81435e-22 6.29901e-22 1.15892e-21 2.3618e-21 4.88775e-21 1.00563e-20 2.04734e-20 4.1201e-20 8.19349e-20 1.61e-19 3.12566e-19 5.995e-19 1.13589e-18 2.12596e-18 3.93018e-18 7.17595e-18 1.29397e-17 2.3042e-17 4.05168e-17 7.03456e-17 1.20586e-16 2.04072e-16 3.4093e-16 5.62231e-16 9.15163e-16 1.47024e-15 2.33104e-15 3.64717e-15 5.63087e-15 8.57784e-15 1.28924e-14 1.91166e-14 2.79629e-14 4.03475e-14 5.7423e-14 8.06046e-14 1.11586e-13 1.52338e-13 2.05083e-13 2.72234e-13 3.56305e-13 4.59772e-13 5.84897e-13 7.33512e-13 9.06782e-13 1.10495e-12 1.32711e-12 1.571e-12 1.83286e-12 2.10741e-12 2.38791e-12 2.66638e-12 2.93393e-12 3.18117e-12 3.39879e-12 3.57811e-12 3.71166e-12 3.79371e-12 3.82065e-12 3.79129e-12 3.70694e-12 3.57128e-12 3.39014e-12 3.17105e-12 2.92273e-12 2.65451e-12 2.37575e-12 2.09533e-12 1.82119e-12 1.55999e-12 1.31697e-12 1.0958e-12 8.98686e-13 7.26493e-13 5.78926e-13 4.54784e-13 3.52211e-13 2.68932e-13 2.02465e-13 1.50297e-13 1.1002e-13 7.94221e-14 5.65444e-14 3.97049e-14 2.75e-14 1.87883e-14 1.2663e-14 8.41999e-15 5.52383e-15 3.57565e-15 2.28395e-15 1.4397e-15 8.95674e-16 5.5004e-16 3.33553e-16 1.99942e-16 1.18838e-16 7.07114e-17 4.33393e-17 2.9447e-17 2.5212e-17 
9.68439e-22 1.26697e-21 2.33067e-21 4.74909e-21 9.82713e-21 2.02168e-20 4.11555e-20 8.28157e-20 1.64682e-19 3.23579e-19 6.28175e-19 1.2048e-18 2.28275e-18 4.27242e-18 7.89834e-18 1.44216e-17 2.6006e-17 4.63115e-17 8.14382e-17 1.41404e-16 2.42413e-16 4.10283e-16 6.85509e-16 1.13061e-15 1.84057e-15 2.95734e-15 4.68953e-15 7.33847e-15 1.13318e-14 1.72655e-14 2.59547e-14 3.84928e-14 5.63169e-14 8.12764e-14 1.15698e-13 1.62441e-13 2.24928e-13 3.07143e-13 4.13579e-13 5.49124e-13 7.18867e-13 9.27827e-13 1.18059e-12 1.48088e-12 1.83108e-12 2.2317e-12 2.68093e-12 3.1742e-12 3.70392e-12 4.25942e-12 4.82706e-12 5.3907e-12 5.93228e-12 6.43283e-12 6.87345e-12 7.23654e-12 7.50697e-12 7.6731e-12 7.72764e-12 7.66815e-12 7.49728e-12 7.22253e-12 6.8557e-12 6.41206e-12 5.9093e-12 5.36632e-12 4.80211e-12 4.23463e-12 3.67996e-12 3.1516e-12 2.6601e-12 2.21291e-12 1.81446e-12 1.46647e-12 1.16833e-12 9.17584e-13 7.10461e-13 5.42344e-13 4.08202e-13 3.02949e-13 2.21711e-13 1.60012e-13 1.13893e-13 7.99561e-14 5.53659e-14 3.78183e-14 2.54834e-14 1.69411e-14 1.11118e-14 7.19147e-15 4.59274e-15 2.89456e-15 1.80049e-15 1.10553e-15 6.7032e-16 4.01759e-16 2.38764e-16 1.42054e-16 8.70572e-17 5.91462e-17 5.06381e-17 
1.92474e-21 2.51786e-21 4.6311e-21 9.43536e-21 1.95222e-20 4.01585e-20 8.17448e-20 1.64482e-19 3.27062e-19 6.42609e-19 1.24748e-18 2.39257e-18 4.5332e-18 8.48449e-18 1.56855e-17 2.86411e-17 5.16501e-17 9.19841e-17 1.61765e-16 2.80902e-16 4.81606e-16 8.15207e-16 1.36223e-15 2.24703e-15 3.65857e-15 5.87935e-15 9.3246e-15 1.45943e-14 2.25403e-14 3.43499e-14 5.16479e-14 7.66142e-14 1.12115e-13 1.61842e-13 2.30438e-13 3.23615e-13 4.4821e-13 6.12189e-13 8.24539e-13 1.09504e-12 1.43389e-12 1.85115e-12 2.35601e-12 2.95598e-12 3.65585e-12 4.45669e-12 5.35493e-12 6.34145e-12 7.40113e-12 8.5126e-12 9.64861e-12 1.07768e-11 1.1861e-11 1.28632e-11 1.37454e-11 1.44725e-11 1.50141e-11 1.53468e-11 1.5456e-11 1.53367e-11 1.49945e-11 1.44441e-11 1.37094e-11 1.2821e-11 1.18144e-11 1.07273e-11 9.59799e-12 8.46233e-12 7.35252e-12 6.29561e-12 5.31266e-12 4.41856e-12 3.62213e-12 2.92675e-12 2.33114e-12 1.83036e-12 1.41683e-12 1.08128e-12 8.13628e-13 6.03679e-13 4.4168e-13 3.18684e-13 2.26775e-13 1.59161e-13 1.10185e-13 7.52446e-14 5.06909e-14 3.36912e-14 2.20935e-14 1.42957e-14 9.12797e-15 5.75179e-15 3.57714e-15 2.19606e-15 1.33133e-15 7.97826e-16 4.74082e-16 2.82023e-16 1.72815e-16 1.17398e-16 1.00506e-16 
3.77929e-21 4.94352e-21 9.0914e-21 1.85206e-20 3.83167e-20 7.88138e-20 1.60419e-19 3.22769e-19 6.41781e-19 1.26093e-18 2.44779e-18 4.69465e-18 8.89505e-18 1.66487e-17 3.07799e-17 5.62057e-17 1.01365e-16 1.80536e-16 3.17522e-16 5.51426e-16 9.4553e-16 1.60068e-15 2.67515e-15 4.41339e-15 7.18699e-15 1.15516e-14 1.83241e-14 2.86855e-14 4.43127e-14 6.75444e-14 1.01582e-13 1.50721e-13 2.20615e-13 3.18544e-13 4.53676e-13 6.37283e-13 8.82879e-13 1.20621e-12 1.62504e-12 2.15874e-12 2.8275e-12 3.65126e-12 4.6483e-12 5.8335e-12 7.21645e-12 8.79939e-12 1.05753e-11 1.25263e-11 1.46225e-11 1.68216e-11 1.90698e-11 2.13028e-11 2.34493e-11 2.54335e-11 2.71807e-11 2.86206e-11 2.96932e-11 3.03521e-11 3.05682e-11 3.03319e-11 2.96538e-11 2.85637e-11 2.71085e-11 2.53491e-11 2.33558e-11 2.12037e-11 1.89683e-11 1.67209e-11 1.45251e-11 1.24344e-11 1.04906e-11 8.72294e-12 7.14885e-12 5.77489e-12 4.59843e-12 3.6096e-12 2.79331e-12 2.13116e-12 1.60316e-12 1.18914e-12 8.69784e-13 6.27396e-13 4.46327e-13 3.13168e-13 2.16742e-13 1.47973e-13 9.96615e-14 6.62226e-14 4.34161e-14 2.80863e-14 1.79295e-14 1.12955e-14 7.02349e-15 4.31103e-15 2.61306e-15 1.56567e-15 9.30207e-16 5.53284e-16 3.3899e-16 2.30257e-16 1.97115e-16 
7.33084e-21 9.58847e-21 1.76316e-20 3.59148e-20 7.42967e-20 1.52811e-19 3.1102e-19 6.25757e-19 1.2442e-18 2.44449e-18 4.74536e-18 9.10128e-18 1.72448e-17 3.22779e-17 5.9678e-17 1.08982e-16 1.96561e-16 3.50116e-16 6.15838e-16 1.06962e-15 1.83432e-15 3.10576e-15 5.19134e-15 8.56597e-15 1.39518e-14 2.24289e-14 3.5586e-14 5.57203e-14 8.60951e-14 1.31263e-13 1.97459e-13 2.93054e-13 4.29066e-13 6.19693e-13 8.82823e-13 1.24046e-12 1.71901e-12 2.34922e-12 3.16588e-12 4.20686e-12 5.51172e-12 7.11954e-12 9.06622e-12 1.1381e-11 1.4083e-11 1.71766e-11 2.06483e-11 2.44635e-11 2.85636e-11 3.28662e-11 3.72657e-11 4.16365e-11 4.58386e-11 4.97238e-11 5.31452e-11 5.59652e-11 5.80659e-11 5.93563e-11 5.97795e-11 5.93165e-11 5.79879e-11 5.58524e-11 5.30023e-11 4.95567e-11 4.56535e-11 4.14403e-11 3.70648e-11 3.26666e-11 2.83707e-11 2.42815e-11 2.04806e-11 1.70252e-11 1.39491e-11 1.1265e-11 8.96744e-12 7.03701e-12 5.44397e-12 4.15221e-12 3.12253e-12 2.31541e-12 1.69306e-12 1.22087e-12 8.68261e-13 6.09039e-13 4.2139e-13 2.87608e-13 1.93653e-13 1.28643e-13 8.43176e-14 5.45322e-14 3.48035e-14 2.19211e-14 1.36275e-14 8.36287e-15 5.06804e-15 3.03608e-15 1.80351e-15 1.07255e-15 6.57033e-16 4.46224e-16 3.81974e-16 
1.40466e-20 1.83713e-20 3.37781e-20 6.87983e-20 1.42313e-19 2.92689e-19 5.95692e-19 1.19847e-18 2.38289e-18 4.68168e-18 9.08841e-18 1.74314e-17 3.30296e-17 6.18262e-17 1.14317e-16 2.08778e-16 3.76588e-16 6.70852e-16 1.18014e-15 2.05001e-15 3.51612e-15 5.95424e-15 9.95434e-15 1.64283e-14 2.67628e-14 4.30331e-14 6.82923e-14 1.06957e-13 1.65303e-13 2.52092e-13 3.79324e-13 5.63122e-13 8.24716e-13 1.19148e-12 1.6979e-12 2.38648e-12 3.30816e-12 4.52241e-12 6.09646e-12 8.10362e-12 1.06205e-11 1.37229e-11 1.74805e-11 2.19503e-11 2.71693e-11 3.3147e-11 3.98576e-11 4.7234e-11 5.51639e-11 6.34876e-11 7.20009e-11 8.04607e-11 8.85953e-11 9.6118e-11 1.02743e-10 1.08205e-10 1.12274e-10 1.14773e-10 1.15592e-10 1.14695e-10 1.12121e-10 1.07984e-10 1.02464e-10 9.5791e-11 8.82333e-11 8.00768e-11 7.16078e-11 6.30972e-11 5.47864e-11 4.6878e-11 3.95293e-11 3.28508e-11 2.69074e-11 2.17231e-11 1.72872e-11 1.35614e-11 1.04879e-11 7.99666e-12 6.01162e-12 4.45623e-12 3.25737e-12 2.34812e-12 1.6694e-12 1.17062e-12 8.09686e-13 5.52457e-13 3.7187e-13 2.4696e-13 1.61822e-13 1.0463e-13 6.67592e-14 4.20381e-14 2.61273e-14 1.60302e-14 9.7125e-15 5.81725e-15 3.45495e-15 2.05428e-15 1.25821e-15 8.54382e-16 7.31312e-16 
2.65847e-20 3.47677e-20 6.3919e-20 1.30179e-19 2.69266e-19 5.53765e-19 1.12701e-18 2.26739e-18 4.50817e-18 8.85733e-18 1.71949e-17 3.29806e-17 6.2496e-17 1.1699e-16 2.16332e-16 3.95127e-16 7.12796e-16 1.26992e-15 2.23431e-15 3.88177e-15 6.65901e-15 1.12784e-14 1.8859e-14 3.11306e-14 5.07251e-14 8.15821e-14 1.295e-13 2.02871e-13 3.13625e-13 4.78421e-13 7.20092e-13 1.06933e-12 1.56657e-12 2.26396e-12 3.2273e-12 4.53761e-12 6.29221e-12 8.60468e-12 1.16036e-11 1.54291e-11 2.02281e-11 2.61458e-11 3.33161e-11 4.18488e-11 5.18155e-11 6.3235e-11 7.60592e-11 9.01606e-11 1.05325e-10 1.21247e-10 1.37536e-10 1.53727e-10 1.69298e-10 1.83702e-10 1.96389e-10 2.06849e-10 2.14641e-10 2.19428e-10 2.20997e-10 2.19277e-10 2.14346e-10 2.06422e-10 1.95848e-10 1.8307e-10 1.68599e-10 1.52985e-10 1.36776e-10 1.20492e-10 1.04595e-10 8.94725e-11 7.54247e-11 6.26624e-11 5.13091e-11 4.14097e-11 3.29425e-11 2.58336e-11 1.99718e-11 1.52223e-11 1.14395e-11 8.47671e-12 6.19399e-12 4.46344e-12 3.17216e-12 2.22361e-12 1.5375e-12 1.0487e-12 7.05673e-13 4.68493e-13 3.06889e-13 1.98368e-13 1.26534e-13 7.96565e-14 4.9495e-14 3.03598e-14 1.83904e-14 1.10124e-14 6.53909e-15 3.88731e-15 2.38044e-15 1.61614e-15 1.38323e-15 
4.9694e-20 6.4987e-20 1.19466e-19 2.43291e-19 5.03208e-19 1.03485e-18 2.10607e-18 4.23711e-18 8.42458e-18 1.65524e-17 3.21346e-17 6.16388e-17 1.16809e-16 2.18679e-16 4.04406e-16 7.3872e-16 1.33279e-15 2.37483e-15 4.17892e-15 7.26146e-15 1.2459e-14 2.11061e-14 3.52995e-14 5.8282e-14 9.49891e-14 1.52811e-13 2.42632e-13 3.80205e-13 5.87944e-13 8.97156e-13 1.35077e-12 2.00654e-12 2.94057e-12 4.2511e-12 6.06212e-12 8.52646e-12 1.18278e-11 1.61806e-11 2.18278e-11 2.90349e-11 3.80798e-11 4.9238e-11 6.27637e-11 7.8866e-11 9.76822e-11 1.1925e-10 1.43479e-10 1.70132e-10 1.98803e-10 2.28916e-10 2.59733e-10 2.90372e-10 3.19847e-10 3.47116e-10 3.71139e-10 3.90948e-10 4.05708e-10 4.14774e-10 4.17745e-10 4.14486e-10 4.05145e-10 3.90134e-10 3.70108e-10 3.45909e-10 3.18512e-10 2.88956e-10 2.58283e-10 2.27476e-10 1.9741e-10 1.68818e-10 1.42268e-10 1.18156e-10 9.67154e-11 7.80276e-11 6.20502e-11 4.86418e-11 3.75903e-11 2.864e-11 2.15145e-11 1.59361e-11 1.16402e-11 8.38477e-12 5.95679e-12 4.17402e-12 2.88503e-12 1.96713e-12 1.32322e-12 8.78183e-13 5.7507e-13 3.71598e-13 2.36961e-13 1.4913e-13 9.26371e-14 5.68077e-14 3.44027e-14 2.05959e-14 1.22269e-14 7.26694e-15 4.44902e-15 3.01997e-15 2.58452e-15 
9.17396e-20 1.19967e-19 2.20521e-19 4.49063e-19 9.28782e-19 1.91001e-18 3.88711e-18 7.82037e-18 1.55495e-17 3.05522e-17 5.93165e-17 1.13785e-16 2.15645e-16 4.03749e-16 7.4674e-16 1.36422e-15 2.46165e-15 4.38696e-15 7.72089e-15 1.34186e-14 2.30277e-14 3.90184e-14 6.52724e-14 1.07796e-13 1.75733e-13 2.82784e-13 4.4913e-13 7.04002e-13 1.089e-12 1.66228e-12 2.50361e-12 3.72035e-12 5.45412e-12 7.8878e-12 1.12524e-11 1.58327e-11 2.19715e-11 3.00692e-11 4.058e-11 5.40002e-11 7.08503e-11 9.1647e-11 1.16868e-10 1.46907e-10 1.82024e-10 2.22293e-10 2.67551e-10 3.17355e-10 3.7095e-10 4.27261e-10 4.84906e-10 5.42236e-10 5.97401e-10 6.48449e-10 6.93431e-10 7.30526e-10 7.58168e-10 7.75149e-10 7.80713e-10 7.74607e-10 7.57107e-10 7.28992e-10 6.91486e-10 6.46174e-10 5.94883e-10 5.39565e-10 4.82171e-10 4.24545e-10 3.68323e-10 3.14877e-10 2.65267e-10 2.20231e-10 1.802e-10 1.45325e-10 1.15522e-10 9.05224e-11 6.9927e-11 5.32552e-11 3.9989e-11 2.96081e-11 2.16176e-11 1.55654e-11 1.10536e-11 7.74235e-12 5.34931e-12 3.64597e-12 2.45161e-12 1.62647e-12 1.0647e-12 6.87754e-13 4.38423e-13 2.75833e-13 1.71292e-13 1.05011e-13 6.35773e-14 3.80521e-14 2.25843e-14 1.34195e-14 8.21386e-15 5.57432e-15 4.7701e-15 